 vasp.6.4.3 19Mar24 (build Nov 05 2024 17:56:24) complex

 executed on             LinuxIFC date 2025.06.17  02:50:12
 running   64 mpi-ranks, on    1 nodes
 distrk:  each k-point on   64 cores,    1 groups
 distr:  one band on NCORE=   1 cores,   64 groups


--------------------------------------------------------------------------------------------------------


 INCAR:
   SYSTEM = superdoubleZX
   NCORE = 1
   NSIM = 16
   PREC = Normal
   ISTART = 1
   ISPIN = 2
   NUPDOWN = 0
   ENCUT = 520
   GGA = PS
   ISMEAR = 0
   SIGMA = 0.01
   EDIFF = 1E-6
   NELM = 40
   NELMIN = 3
   AMIX = 0.2
   AMIX_MAG = 0.8
   LORBIT = 10
   ISIF = 0
   EDIFFG = -1E-2
   NSW = 1
   IBRION = 8
   POTIM = 0.3
   LEPSILON = True

 POTCAR:    PAW_PBE Si 05Jan2001
 POTCAR:    PAW_PBE C 08Apr2002
 -----------------------------------------------------------------------------
|                                                                             |
|           W    W    AA    RRRRR   N    N  II  N    N   GGGG   !!!           |
|           W    W   A  A   R    R  NN   N  II  NN   N  G    G  !!!           |
|           W    W  A    A  R    R  N N  N  II  N N  N  G       !!!           |
|           W WW W  AAAAAA  RRRRR   N  N N  II  N  N N  G  GGG   !            |
|           WW  WW  A    A  R   R   N   NN  II  N   NN  G    G                |
|           W    W  A    A  R    R  N    N  II  N    N   GGGG   !!!           |
|                                                                             |
|     You use a magnetic or noncollinear calculation, but did not specify     |
|     the initial magnetic moment with the MAGMOM tag. Note that a            |
|     default of 0 will be used for all atoms. This ferromagnetic setup       |
|     may break the symmetry of the crystal, in particular it may rule        |
|     out finding an antiferromagnetic solution. Thence, we recommend         |
|     setting the initial magnetic moment manually or verifying carefully     |
|     that this magnetic setup is desired.                                    |
|                                                                             |
 -----------------------------------------------------------------------------

 -----------------------------------------------------------------------------
|                                                                             |
|           W    W    AA    RRRRR   N    N  II  N    N   GGGG   !!!           |
|           W    W   A  A   R    R  NN   N  II  NN   N  G    G  !!!           |
|           W    W  A    A  R    R  N N  N  II  N N  N  G       !!!           |
|           W WW W  AAAAAA  RRRRR   N  N N  II  N  N N  G  GGG   !            |
|           WW  WW  A    A  R   R   N   NN  II  N   NN  G    G                |
|           W    W  A    A  R    R  N    N  II  N    N   GGGG   !!!           |
|                                                                             |
|     For optimal performance we recommend to set                             |
|       NCORE = 2 up to number-of-cores-per-socket                            |
|     NCORE specifies how many cores store one orbital (NPAR=cpu/NCORE).      |
|     This setting can greatly improve the performance of VASP for DFT.       |
|     The default, NCORE=1 might be grossly inefficient on modern             |
|     multi-core architectures or massively parallel machines. Do your        |
|     own testing! More info at https://www.vasp.at/wiki/index.php/NCORE      |
|     Unfortunately you need to use the default for GW and RPA                |
|     calculations (for HF NCORE is supported but not extensively tested      |
|     yet).                                                                   |
|                                                                             |
 -----------------------------------------------------------------------------

 POTCAR:    PAW_PBE Si 05Jan2001
   SHA256 =  79d9987ad8750f624c4d6acb2a16d13abf6a777132adc04dc6c8399be72b42bb Si/POTCAR
   COPYR  = (c) Copyright 05Jan2001 Georg Kresse
   COPYR  = This file is part of the software VASP. Any use, copying, and all other rights are regul
   COPYR  = If you do not have a valid VASP license, you may not use, copy or distribute this file.
   VRHFIN =Si: s2p2
   LEXCH  = PE
   EATOM  =   103.0669 eV,    7.5752 Ry

   TITLE  = PAW_PBE Si 05Jan2001
   LULTRA =        F    use ultrasoft PP ?
   IUNSCR =        1    unscreen: 0-lin 1-nonlin 2-no
   RPACOR =    1.500    partial core radius
   POMASS =   28.085; ZVAL   =    4.000    mass and valenz
   RCORE  =    1.900    outmost cutoff radius
   RWIGS  =    2.480; RWIGS  =    1.312    wigner-seitz radius (au A)
   ENMAX  =  245.345; ENMIN  =  184.009 eV
   ICORE  =        2    local potential
   LCOR   =        T    correct aug charges
   LPAW   =        T    paw PP
   EAUG   =  322.069
   DEXC   =    0.000
   RMAX   =    1.950    core radius for proj-oper
   RAUG   =    1.300    factor for augmentation sphere
   RDEP   =    1.993    radius for radial grids
   RDEPT  =    1.837    core radius for aug-charge

   Atomic configuration
    6 entries
     n  l   j            E        occ.
     1  0  0.50     -1785.8828   2.0000
     2  0  0.50      -139.4969   2.0000
     2  1  1.50       -95.5546   6.0000
     3  0  0.50       -10.8127   2.0000
     3  1  0.50        -4.0811   2.0000
     3  2  1.50        -4.0817   0.0000
   Description
     l       E           TYP  RCUT    TYP  RCUT
     0    -10.8127223     23  1.900
     0     -7.6451159     23  1.900
     1     -4.0811372     23  1.900
     1      2.4879257     23  1.900
     2     -4.0817478      7  1.900
  local pseudopotential read in
  partial core-charges read in
  partial kinetic energy density read in
  atomic valenz-charges read in
  non local Contribution for L=           0  read in
    real space projection operators read in
  non local Contribution for L=           0  read in
    real space projection operators read in
  non local Contribution for L=           1  read in
    real space projection operators read in
  non local Contribution for L=           1  read in
    real space projection operators read in
    PAW grid and wavefunctions read in

   number of l-projection  operators is LMAX  =           4
   number of lm-projection operators is LMMAX =           8

 POTCAR:    PAW_PBE C 08Apr2002
   SHA256 =  253f7b50bb8d59471dbedb8285d89021f4a42ed1a2c5d38a03a736e69125dd95 C/POTCAR
   COPYR  = (c) Copyright 08Apr2002 Georg Kresse
   COPYR  = This file is part of the software VASP. Any use, copying, and all other rights are regul
   COPYR  = If you do not have a valid VASP license, you may not use, copy or distribute this file.
   VRHFIN =C: s2p2
   LEXCH  = PE
   EATOM  =   147.1560 eV,   10.8157 Ry

   TITLE  = PAW_PBE C 08Apr2002
   LULTRA =        F    use ultrasoft PP ?
   IUNSCR =        1    unscreen: 0-lin 1-nonlin 2-no
   RPACOR =    1.200    partial core radius
   POMASS =   12.011; ZVAL   =    4.000    mass and valenz
   RCORE  =    1.500    outmost cutoff radius
   RWIGS  =    1.630; RWIGS  =    0.863    wigner-seitz radius (au A)
   ENMAX  =  400.000; ENMIN  =  300.000 eV
   ICORE  =        2    local potential
   LCOR   =        T    correct aug charges
   LPAW   =        T    paw PP
   EAUG   =  644.873
   DEXC   =    0.000
   RMAX   =    1.529    core radius for proj-oper
   RAUG   =    1.300    factor for augmentation sphere
   RDEP   =    1.501    radius for radial grids
   RDEPT  =    1.300    core radius for aug-charge

   Atomic configuration
    4 entries
     n  l   j            E        occ.
     1  0  0.50      -273.3789   2.0000
     2  0  0.50       -13.7508   2.0000
     2  1  0.50        -5.2854   2.0000
     3  2  1.50        -5.4423   0.0000
   Description
     l       E           TYP  RCUT    TYP  RCUT
     0    -13.7508458     23  1.200
     0     -8.2022199     23  1.200
     1     -5.2854383     23  1.500
     1     34.0145650     23  1.500
     2     -5.4423304      7  1.500
  local pseudopotential read in
  partial core-charges read in
  partial kinetic energy density read in
  atomic valenz-charges read in
  non local Contribution for L=           0  read in
    real space projection operators read in
  non local Contribution for L=           0  read in
    real space projection operators read in
  non local Contribution for L=           1  read in
    real space projection operators read in
  non local Contribution for L=           1  read in
    real space projection operators read in
    PAW grid and wavefunctions read in

   number of l-projection  operators is LMAX  =           4
   number of lm-projection operators is LMMAX =           8

 -----------------------------------------------------------------------------
|                                                                             |
|               ----> ADVICE to this user running VASP <----                  |
|                                                                             |
|     You enforced a specific xc type in the INCAR file but a different       |
|     type was found in the POTCAR file.                                      |
|     I HOPE YOU KNOW WHAT YOU ARE DOING!                                     |
|                                                                             |
 -----------------------------------------------------------------------------

  PAW_PBE Si 05Jan2001                  :
 energy of atom  1       EATOM= -103.0669
 kinetic energy error for atom=    0.0005 (will be added to EATOM!!)
  PAW_PBE C 08Apr2002                   :
 energy of atom  2       EATOM= -147.1560
 kinetic energy error for atom=    0.0071 (will be added to EATOM!!)


 POSCAR: Si4 C4
  positions in direct lattice
  velocities in cartesian coordinates


 exchange-correlation table for PS
   RHO(1)=    0.500       N(1)  =     2000
   RHO(2)=  100.500       N(2)  =     4000



--------------------------------------------------------------------------------------------------------


 ion  position               nearest neighbor table
   1  0.000  0.000  0.188-   7 1.88   7 1.88   7 1.88   5 1.89   3 3.08   3 3.08   3 3.08   4 3.08
                             4 3.08   4 3.08
   2  0.000  0.000  0.688-   8 1.88   8 1.88   8 1.88   6 1.89   4 3.08   4 3.08   4 3.08   3 3.08
                             3 3.08   3 3.08
   3  0.333  0.667  0.438-   6 1.89   6 1.89   6 1.89   7 1.90   1 3.08   1 3.08   1 3.08   2 3.08
                             2 3.08   2 3.08
   4  0.667  0.333  0.938-   5 1.89   5 1.89   5 1.89   8 1.90   2 3.08   2 3.08   2 3.08   1 3.08
                             1 3.08   1 3.08
   5  0.000  0.000  0.000-   4 1.89   4 1.89   4 1.89   1 1.89
   6  0.000  0.000  0.500-   3 1.89   3 1.89   3 1.89   2 1.89
   7  0.333  0.667  0.250-   1 1.88   1 1.88   1 1.88   3 1.90
   8  0.667  0.333  0.750-   2 1.88   2 1.88   2 1.88   4 1.90

  LATTYP: Found a hexagonal cell.
 ALAT       =     3.0793965085
 C/A-ratio  =     3.2741747271

  Lattice vectors:

 A1 = (   3.0793965085,   0.0000000000,   0.0000000000)
 A2 = (  -1.5396982543,   2.6668356047,   0.0000000000)
 A3 = (   0.0000000000,   0.0000000000,  10.0824822231)


Analysis of symmetry for initial positions (statically):
=====================================================================
 Subroutine PRICEL returns:
 Original cell was already a primitive cell.


 Routine SETGRP: Setting up the symmetry group for a
 hexagonal supercell.


 Subroutine GETGRP returns: Found 12 space group operations
 (whereof  6 operations were pure point group operations)
 out of a pool of 24 trial point group operations.


The static configuration has the point symmetry C_3v.
 The point group associated with its full space group is C_6v.


Analysis of symmetry for dynamics (positions and initial velocities):
=====================================================================
 Subroutine PRICEL returns:
 Original cell was already a primitive cell.


 Routine SETGRP: Setting up the symmetry group for a
 hexagonal supercell.


 Subroutine GETGRP returns: Found 12 space group operations
 (whereof  6 operations were pure point group operations)
 out of a pool of 24 trial point group operations.


The dynamic configuration has the point symmetry C_3v.
 The point group associated with its full space group is C_6v.


Analysis of structural, dynamic, and magnetic symmetry:
=====================================================================
 Subroutine PRICEL returns:
 Original cell was already a primitive cell.


 Routine SETGRP: Setting up the symmetry group for a
 hexagonal supercell.


 Subroutine GETGRP returns: Found 12 space group operations
 (whereof  6 operations were pure point group operations)
 out of a pool of 24 trial point group operations.


The overall configuration has the point symmetry C_3v.
 The point group associated with its full space group is C_6v.


 Subroutine INISYM returns: Found 12 space group operations
 (whereof  6 operations are pure point group operations),
 and found     1 'primitive' translations


----------------------------------------------------------------------------------------

                                     Primitive cell

  volume of cell :      82.7998

  direct lattice vectors                    reciprocal lattice vectors
     3.079396509  0.000000000  0.000000000     0.324738954  0.187488122  0.000000000
    -1.539698254  2.666835605  0.000000000     0.000000000  0.374976245  0.000000000
     0.000000000  0.000000000 10.082482223     0.000000000  0.000000000  0.099181925

  length of vectors
     3.079396509  3.079396509 10.082482223     0.374976245  0.374976245  0.099181925

  position of ions in fractional coordinates (direct lattice)
     0.000000000  0.000000000  0.187883895
     0.000000000  0.000000000  0.687883865
     0.333333343  0.666666687  0.437847687
     0.666666627  0.333333313  0.937847716
     0.000000000  0.000000000  0.000459244
     0.000000000  0.000000000  0.500459223
     0.333333343  0.666666687  0.249808170
     0.666666627  0.333333313  0.749808170

  ion indices of the primitive-cell ions
   primitive index   ion index
                 1           1
                 2           2
                 3           3
                 4           4
                 5           5
                 6           6
                 7           7
                 8           8

----------------------------------------------------------------------------------------



 KPOINTS: K-Spacing Value to Generate K-Mesh: 0.04

Automatic generation of k-mesh.
 Grid dimensions read from file:
 generate k-points for:   12   12    2

 Generating k-lattice:

  Cartesian coordinates                     Fractional coordinates (reciprocal lattice)
     0.027061579  0.015624010  0.000000000     0.083333333 -0.000000000  0.000000000
     0.000000000  0.031248020  0.000000000     0.000000000  0.083333333  0.000000000
     0.000000000  0.000000000  0.049590963     0.000000000  0.000000000  0.500000000

  Length of vectors
     0.031248020  0.031248020  0.049590963

  Shift w.r.t. Gamma in fractional coordinates (k-lattice)
     0.000000000  0.000000000  0.000000000


 Subroutine IBZKPT returns following result:
 ===========================================

 Found     38 irreducible k-points:

 Following reciprocal coordinates:
            Coordinates               Weight
  0.000000  0.000000  0.000000      1.000000
  0.083333  0.000000  0.000000      6.000000
  0.166667  0.000000  0.000000      6.000000
  0.250000  0.000000  0.000000      6.000000
  0.333333  0.000000  0.000000      6.000000
  0.416667  0.000000  0.000000      6.000000
  0.500000  0.000000  0.000000      3.000000
  0.083333  0.083333  0.000000      6.000000
  0.166667  0.083333  0.000000     12.000000
  0.250000  0.083333  0.000000     12.000000
  0.333333  0.083333  0.000000     12.000000
  0.416667  0.083333  0.000000     12.000000
  0.166667  0.166667  0.000000      6.000000
  0.250000  0.166667  0.000000     12.000000
  0.333333  0.166667  0.000000     12.000000
  0.416667  0.166667  0.000000      6.000000
  0.250000  0.250000  0.000000      6.000000
  0.333333  0.250000  0.000000     12.000000
  0.333333  0.333333  0.000000      2.000000
  0.000000  0.000000  0.500000      1.000000
  0.083333  0.000000  0.500000      6.000000
  0.166667  0.000000  0.500000      6.000000
  0.250000  0.000000  0.500000      6.000000
  0.333333  0.000000  0.500000      6.000000
  0.416667  0.000000  0.500000      6.000000
  0.500000  0.000000  0.500000      3.000000
  0.083333  0.083333  0.500000      6.000000
  0.166667  0.083333  0.500000     12.000000
  0.250000  0.083333  0.500000     12.000000
  0.333333  0.083333  0.500000     12.000000
  0.416667  0.083333  0.500000     12.000000
  0.166667  0.166667  0.500000      6.000000
  0.250000  0.166667  0.500000     12.000000
  0.333333  0.166667  0.500000     12.000000
  0.416667  0.166667  0.500000      6.000000
  0.250000  0.250000  0.500000      6.000000
  0.333333  0.250000  0.500000     12.000000
  0.333333  0.333333  0.500000      2.000000

 Following cartesian coordinates:
            Coordinates               Weight
  0.000000  0.000000  0.000000      1.000000
  0.027062  0.015624  0.000000      6.000000
  0.054123  0.031248  0.000000      6.000000
  0.081185  0.046872  0.000000      6.000000
  0.108246  0.062496  0.000000      6.000000
  0.135308  0.078120  0.000000      6.000000
  0.162369  0.093744  0.000000      3.000000
  0.027062  0.046872  0.000000      6.000000
  0.054123  0.062496  0.000000     12.000000
  0.081185  0.078120  0.000000     12.000000
  0.108246  0.093744  0.000000     12.000000
  0.135308  0.109368  0.000000     12.000000
  0.054123  0.093744  0.000000      6.000000
  0.081185  0.109368  0.000000     12.000000
  0.108246  0.124992  0.000000     12.000000
  0.135308  0.140616  0.000000      6.000000
  0.081185  0.140616  0.000000      6.000000
  0.108246  0.156240  0.000000     12.000000
  0.108246  0.187488  0.000000      2.000000
  0.000000  0.000000  0.049591      1.000000
  0.027062  0.015624  0.049591      6.000000
  0.054123  0.031248  0.049591      6.000000
  0.081185  0.046872  0.049591      6.000000
  0.108246  0.062496  0.049591      6.000000
  0.135308  0.078120  0.049591      6.000000
  0.162369  0.093744  0.049591      3.000000
  0.027062  0.046872  0.049591      6.000000
  0.054123  0.062496  0.049591     12.000000
  0.081185  0.078120  0.049591     12.000000
  0.108246  0.093744  0.049591     12.000000
  0.135308  0.109368  0.049591     12.000000
  0.054123  0.093744  0.049591      6.000000
  0.081185  0.109368  0.049591     12.000000
  0.108246  0.124992  0.049591     12.000000
  0.135308  0.140616  0.049591      6.000000
  0.081185  0.140616  0.049591      6.000000
  0.108246  0.156240  0.049591     12.000000
  0.108246  0.187488  0.049591      2.000000


 Subroutine IBZKPT_HF returns following result:
 ==============================================

 Found    288 k-points in 1st BZ
 the following    288 k-points will be used (e.g. in the exchange kernel)
 Following reciprocal coordinates:   # in IRBZ
  0.000000  0.000000  0.000000    0.00347222   1 t-inv F
  0.083333  0.000000  0.000000    0.00347222   2 t-inv F
  0.166667  0.000000  0.000000    0.00347222   3 t-inv F
  0.250000  0.000000  0.000000    0.00347222   4 t-inv F
  0.333333  0.000000  0.000000    0.00347222   5 t-inv F
  0.416667  0.000000  0.000000    0.00347222   6 t-inv F
  0.500000  0.000000  0.000000    0.00347222   7 t-inv F
  0.083333  0.083333  0.000000    0.00347222   8 t-inv F
  0.166667  0.083333  0.000000    0.00347222   9 t-inv F
  0.250000  0.083333  0.000000    0.00347222  10 t-inv F
  0.333333  0.083333  0.000000    0.00347222  11 t-inv F
  0.416667  0.083333  0.000000    0.00347222  12 t-inv F
  0.166667  0.166667  0.000000    0.00347222  13 t-inv F
  0.250000  0.166667  0.000000    0.00347222  14 t-inv F
  0.333333  0.166667  0.000000    0.00347222  15 t-inv F
  0.416667  0.166667  0.000000    0.00347222  16 t-inv F
  0.250000  0.250000  0.000000    0.00347222  17 t-inv F
  0.333333  0.250000  0.000000    0.00347222  18 t-inv F
  0.333333  0.333333  0.000000    0.00347222  19 t-inv F
  0.000000  0.000000  0.500000    0.00347222  20 t-inv F
  0.083333  0.000000  0.500000    0.00347222  21 t-inv F
  0.166667  0.000000  0.500000    0.00347222  22 t-inv F
  0.250000  0.000000  0.500000    0.00347222  23 t-inv F
  0.333333  0.000000  0.500000    0.00347222  24 t-inv F
  0.416667  0.000000  0.500000    0.00347222  25 t-inv F
  0.500000  0.000000  0.500000    0.00347222  26 t-inv F
  0.083333  0.083333  0.500000    0.00347222  27 t-inv F
  0.166667  0.083333  0.500000    0.00347222  28 t-inv F
  0.250000  0.083333  0.500000    0.00347222  29 t-inv F
  0.333333  0.083333  0.500000    0.00347222  30 t-inv F
  0.416667  0.083333  0.500000    0.00347222  31 t-inv F
  0.166667  0.166667  0.500000    0.00347222  32 t-inv F
  0.250000  0.166667  0.500000    0.00347222  33 t-inv F
  0.333333  0.166667  0.500000    0.00347222  34 t-inv F
  0.416667  0.166667  0.500000    0.00347222  35 t-inv F
  0.250000  0.250000  0.500000    0.00347222  36 t-inv F
  0.333333  0.250000  0.500000    0.00347222  37 t-inv F
  0.333333  0.333333  0.500000    0.00347222  38 t-inv F
 -0.083333  0.083333  0.000000    0.00347222   2 t-inv F
  0.000000 -0.083333  0.000000    0.00347222   2 t-inv F
 -0.000000  0.083333  0.000000    0.00347222   2 t-inv F
 -0.083333 -0.000000  0.000000    0.00347222   2 t-inv F
  0.083333 -0.083333  0.000000    0.00347222   2 t-inv F
 -0.166667  0.166667  0.000000    0.00347222   3 t-inv F
  0.000000 -0.166667  0.000000    0.00347222   3 t-inv F
 -0.000000  0.166667  0.000000    0.00347222   3 t-inv F
 -0.166667 -0.000000  0.000000    0.00347222   3 t-inv F
  0.166667 -0.166667  0.000000    0.00347222   3 t-inv F
 -0.250000  0.250000  0.000000    0.00347222   4 t-inv F
  0.000000 -0.250000  0.000000    0.00347222   4 t-inv F
 -0.000000  0.250000  0.000000    0.00347222   4 t-inv F
 -0.250000 -0.000000  0.000000    0.00347222   4 t-inv F
  0.250000 -0.250000  0.000000    0.00347222   4 t-inv F
 -0.333333  0.333333  0.000000    0.00347222   5 t-inv F
  0.000000 -0.333333  0.000000    0.00347222   5 t-inv F
 -0.000000  0.333333  0.000000    0.00347222   5 t-inv F
 -0.333333 -0.000000  0.000000    0.00347222   5 t-inv F
  0.333333 -0.333333  0.000000    0.00347222   5 t-inv F
 -0.416667  0.416667  0.000000    0.00347222   6 t-inv F
  0.000000 -0.416667  0.000000    0.00347222   6 t-inv F
 -0.000000  0.416667  0.000000    0.00347222   6 t-inv F
 -0.416667 -0.000000  0.000000    0.00347222   6 t-inv F
  0.416667 -0.416667  0.000000    0.00347222   6 t-inv F
 -0.500000  0.500000  0.000000    0.00347222   7 t-inv F
  0.000000 -0.500000  0.000000    0.00347222   7 t-inv F
 -0.166667  0.083333  0.000000    0.00347222   8 t-inv F
  0.083333 -0.166667  0.000000    0.00347222   8 t-inv F
 -0.083333  0.166667  0.000000    0.00347222   8 t-inv F
  0.166667 -0.083333  0.000000    0.00347222   8 t-inv F
 -0.083333 -0.083333  0.000000    0.00347222   8 t-inv F
 -0.250000  0.166667  0.000000    0.00347222   9 t-inv F
  0.083333 -0.250000  0.000000    0.00347222   9 t-inv F
 -0.166667  0.250000  0.000000    0.00347222   9 t-inv F
  0.250000 -0.083333  0.000000    0.00347222   9 t-inv F
 -0.083333 -0.166667  0.000000    0.00347222   9 t-inv F
 -0.083333  0.250000  0.000000    0.00347222   9 t-inv F
 -0.166667 -0.083333  0.000000    0.00347222   9 t-inv F
  0.250000 -0.166667  0.000000    0.00347222   9 t-inv F
  0.083333  0.166667  0.000000    0.00347222   9 t-inv F
  0.166667 -0.250000  0.000000    0.00347222   9 t-inv F
 -0.250000  0.083333  0.000000    0.00347222   9 t-inv F
 -0.333333  0.250000  0.000000    0.00347222  10 t-inv F
  0.083333 -0.333333  0.000000    0.00347222  10 t-inv F
 -0.250000  0.333333  0.000000    0.00347222  10 t-inv F
  0.333333 -0.083333  0.000000    0.00347222  10 t-inv F
 -0.083333 -0.250000  0.000000    0.00347222  10 t-inv F
 -0.083333  0.333333  0.000000    0.00347222  10 t-inv F
 -0.250000 -0.083333  0.000000    0.00347222  10 t-inv F
  0.333333 -0.250000  0.000000    0.00347222  10 t-inv F
  0.083333  0.250000  0.000000    0.00347222  10 t-inv F
  0.250000 -0.333333  0.000000    0.00347222  10 t-inv F
 -0.333333  0.083333  0.000000    0.00347222  10 t-inv F
 -0.416667  0.333333  0.000000    0.00347222  11 t-inv F
  0.083333 -0.416667  0.000000    0.00347222  11 t-inv F
 -0.333333  0.416667  0.000000    0.00347222  11 t-inv F
  0.416667 -0.083333  0.000000    0.00347222  11 t-inv F
 -0.083333 -0.333333  0.000000    0.00347222  11 t-inv F
 -0.083333  0.416667  0.000000    0.00347222  11 t-inv F
 -0.333333 -0.083333  0.000000    0.00347222  11 t-inv F
  0.416667 -0.333333  0.000000    0.00347222  11 t-inv F
  0.083333  0.333333  0.000000    0.00347222  11 t-inv F
  0.333333 -0.416667  0.000000    0.00347222  11 t-inv F
 -0.416667  0.083333  0.000000    0.00347222  11 t-inv F
 -0.500000  0.416667  0.000000    0.00347222  12 t-inv F
  0.083333 -0.500000  0.000000    0.00347222  12 t-inv F
 -0.416667  0.500000  0.000000    0.00347222  12 t-inv F
  0.500000 -0.083333  0.000000    0.00347222  12 t-inv F
 -0.083333 -0.416667  0.000000    0.00347222  12 t-inv F
 -0.083333  0.500000  0.000000    0.00347222  12 t-inv F
 -0.416667 -0.083333  0.000000    0.00347222  12 t-inv F
  0.500000 -0.416667  0.000000    0.00347222  12 t-inv F
  0.083333  0.416667  0.000000    0.00347222  12 t-inv F
  0.416667 -0.500000  0.000000    0.00347222  12 t-inv F
 -0.500000  0.083333  0.000000    0.00347222  12 t-inv F
 -0.333333  0.166667  0.000000    0.00347222  13 t-inv F
  0.166667 -0.333333  0.000000    0.00347222  13 t-inv F
 -0.166667  0.333333  0.000000    0.00347222  13 t-inv F
  0.333333 -0.166667  0.000000    0.00347222  13 t-inv F
 -0.166667 -0.166667  0.000000    0.00347222  13 t-inv F
 -0.416667  0.250000  0.000000    0.00347222  14 t-inv F
  0.166667 -0.416667  0.000000    0.00347222  14 t-inv F
 -0.250000  0.416667  0.000000    0.00347222  14 t-inv F
  0.416667 -0.166667  0.000000    0.00347222  14 t-inv F
 -0.166667 -0.250000  0.000000    0.00347222  14 t-inv F
 -0.166667  0.416667  0.000000    0.00347222  14 t-inv F
 -0.250000 -0.166667  0.000000    0.00347222  14 t-inv F
  0.416667 -0.250000  0.000000    0.00347222  14 t-inv F
  0.166667  0.250000  0.000000    0.00347222  14 t-inv F
  0.250000 -0.416667  0.000000    0.00347222  14 t-inv F
 -0.416667  0.166667  0.000000    0.00347222  14 t-inv F
 -0.500000  0.333333  0.000000    0.00347222  15 t-inv F
  0.166667 -0.500000  0.000000    0.00347222  15 t-inv F
 -0.333333  0.500000  0.000000    0.00347222  15 t-inv F
  0.500000 -0.166667  0.000000    0.00347222  15 t-inv F
 -0.166667 -0.333333  0.000000    0.00347222  15 t-inv F
 -0.166667  0.500000  0.000000    0.00347222  15 t-inv F
 -0.333333 -0.166667  0.000000    0.00347222  15 t-inv F
  0.500000 -0.333333  0.000000    0.00347222  15 t-inv F
  0.166667  0.333333  0.000000    0.00347222  15 t-inv F
  0.333333 -0.500000  0.000000    0.00347222  15 t-inv F
 -0.500000  0.166667  0.000000    0.00347222  15 t-inv F
 -0.583333  0.416667  0.000000    0.00347222  16 t-inv F
  0.166667 -0.583333  0.000000    0.00347222  16 t-inv F
 -0.416667  0.583333  0.000000    0.00347222  16 t-inv F
  0.583333 -0.166667  0.000000    0.00347222  16 t-inv F
 -0.166667 -0.416667  0.000000    0.00347222  16 t-inv F
 -0.500000  0.250000  0.000000    0.00347222  17 t-inv F
  0.250000 -0.500000  0.000000    0.00347222  17 t-inv F
 -0.250000  0.500000  0.000000    0.00347222  17 t-inv F
  0.500000 -0.250000  0.000000    0.00347222  17 t-inv F
 -0.250000 -0.250000  0.000000    0.00347222  17 t-inv F
 -0.583333  0.333333  0.000000    0.00347222  18 t-inv F
  0.250000 -0.583333  0.000000    0.00347222  18 t-inv F
 -0.333333  0.583333  0.000000    0.00347222  18 t-inv F
  0.583333 -0.250000  0.000000    0.00347222  18 t-inv F
 -0.250000 -0.333333  0.000000    0.00347222  18 t-inv F
 -0.250000  0.583333  0.000000    0.00347222  18 t-inv F
 -0.333333 -0.250000  0.000000    0.00347222  18 t-inv F
  0.583333 -0.333333  0.000000    0.00347222  18 t-inv F
  0.250000  0.333333  0.000000    0.00347222  18 t-inv F
  0.333333 -0.583333  0.000000    0.00347222  18 t-inv F
 -0.583333  0.250000  0.000000    0.00347222  18 t-inv F
 -0.333333  0.666667  0.000000    0.00347222  19 t-inv F
 -0.083333  0.083333  0.500000    0.00347222  21 t-inv F
  0.000000 -0.083333  0.500000    0.00347222  21 t-inv F
 -0.000000  0.083333  0.500000    0.00347222  21 t-inv F
 -0.083333 -0.000000  0.500000    0.00347222  21 t-inv F
  0.083333 -0.083333  0.500000    0.00347222  21 t-inv F
 -0.166667  0.166667  0.500000    0.00347222  22 t-inv F
  0.000000 -0.166667  0.500000    0.00347222  22 t-inv F
 -0.000000  0.166667  0.500000    0.00347222  22 t-inv F
 -0.166667 -0.000000  0.500000    0.00347222  22 t-inv F
  0.166667 -0.166667  0.500000    0.00347222  22 t-inv F
 -0.250000  0.250000  0.500000    0.00347222  23 t-inv F
  0.000000 -0.250000  0.500000    0.00347222  23 t-inv F
 -0.000000  0.250000  0.500000    0.00347222  23 t-inv F
 -0.250000 -0.000000  0.500000    0.00347222  23 t-inv F
  0.250000 -0.250000  0.500000    0.00347222  23 t-inv F
 -0.333333  0.333333  0.500000    0.00347222  24 t-inv F
  0.000000 -0.333333  0.500000    0.00347222  24 t-inv F
 -0.000000  0.333333  0.500000    0.00347222  24 t-inv F
 -0.333333 -0.000000  0.500000    0.00347222  24 t-inv F
  0.333333 -0.333333  0.500000    0.00347222  24 t-inv F
 -0.416667  0.416667  0.500000    0.00347222  25 t-inv F
  0.000000 -0.416667  0.500000    0.00347222  25 t-inv F
 -0.000000  0.416667  0.500000    0.00347222  25 t-inv F
 -0.416667 -0.000000  0.500000    0.00347222  25 t-inv F
  0.416667 -0.416667  0.500000    0.00347222  25 t-inv F
 -0.500000  0.500000  0.500000    0.00347222  26 t-inv F
  0.000000 -0.500000  0.500000    0.00347222  26 t-inv F
 -0.166667  0.083333  0.500000    0.00347222  27 t-inv F
  0.083333 -0.166667  0.500000    0.00347222  27 t-inv F
 -0.083333  0.166667  0.500000    0.00347222  27 t-inv F
  0.166667 -0.083333  0.500000    0.00347222  27 t-inv F
 -0.083333 -0.083333  0.500000    0.00347222  27 t-inv F
 -0.250000  0.166667  0.500000    0.00347222  28 t-inv F
  0.083333 -0.250000  0.500000    0.00347222  28 t-inv F
 -0.166667  0.250000  0.500000    0.00347222  28 t-inv F
  0.250000 -0.083333  0.500000    0.00347222  28 t-inv F
 -0.083333 -0.166667  0.500000    0.00347222  28 t-inv F
 -0.083333  0.250000  0.500000    0.00347222  28 t-inv F
 -0.166667 -0.083333  0.500000    0.00347222  28 t-inv F
  0.250000 -0.166667  0.500000    0.00347222  28 t-inv F
  0.083333  0.166667  0.500000    0.00347222  28 t-inv F
  0.166667 -0.250000  0.500000    0.00347222  28 t-inv F
 -0.250000  0.083333  0.500000    0.00347222  28 t-inv F
 -0.333333  0.250000  0.500000    0.00347222  29 t-inv F
  0.083333 -0.333333  0.500000    0.00347222  29 t-inv F
 -0.250000  0.333333  0.500000    0.00347222  29 t-inv F
  0.333333 -0.083333  0.500000    0.00347222  29 t-inv F
 -0.083333 -0.250000  0.500000    0.00347222  29 t-inv F
 -0.083333  0.333333  0.500000    0.00347222  29 t-inv F
 -0.250000 -0.083333  0.500000    0.00347222  29 t-inv F
  0.333333 -0.250000  0.500000    0.00347222  29 t-inv F
  0.083333  0.250000  0.500000    0.00347222  29 t-inv F
  0.250000 -0.333333  0.500000    0.00347222  29 t-inv F
 -0.333333  0.083333  0.500000    0.00347222  29 t-inv F
 -0.416667  0.333333  0.500000    0.00347222  30 t-inv F
  0.083333 -0.416667  0.500000    0.00347222  30 t-inv F
 -0.333333  0.416667  0.500000    0.00347222  30 t-inv F
  0.416667 -0.083333  0.500000    0.00347222  30 t-inv F
 -0.083333 -0.333333  0.500000    0.00347222  30 t-inv F
 -0.083333  0.416667  0.500000    0.00347222  30 t-inv F
 -0.333333 -0.083333  0.500000    0.00347222  30 t-inv F
  0.416667 -0.333333  0.500000    0.00347222  30 t-inv F
  0.083333  0.333333  0.500000    0.00347222  30 t-inv F
  0.333333 -0.416667  0.500000    0.00347222  30 t-inv F
 -0.416667  0.083333  0.500000    0.00347222  30 t-inv F
 -0.500000  0.416667  0.500000    0.00347222  31 t-inv F
  0.083333 -0.500000  0.500000    0.00347222  31 t-inv F
 -0.416667  0.500000  0.500000    0.00347222  31 t-inv F
  0.500000 -0.083333  0.500000    0.00347222  31 t-inv F
 -0.083333 -0.416667  0.500000    0.00347222  31 t-inv F
 -0.083333  0.500000  0.500000    0.00347222  31 t-inv F
 -0.416667 -0.083333  0.500000    0.00347222  31 t-inv F
  0.500000 -0.416667  0.500000    0.00347222  31 t-inv F
  0.083333  0.416667  0.500000    0.00347222  31 t-inv F
  0.416667 -0.500000  0.500000    0.00347222  31 t-inv F
 -0.500000  0.083333  0.500000    0.00347222  31 t-inv F
 -0.333333  0.166667  0.500000    0.00347222  32 t-inv F
  0.166667 -0.333333  0.500000    0.00347222  32 t-inv F
 -0.166667  0.333333  0.500000    0.00347222  32 t-inv F
  0.333333 -0.166667  0.500000    0.00347222  32 t-inv F
 -0.166667 -0.166667  0.500000    0.00347222  32 t-inv F
 -0.416667  0.250000  0.500000    0.00347222  33 t-inv F
  0.166667 -0.416667  0.500000    0.00347222  33 t-inv F
 -0.250000  0.416667  0.500000    0.00347222  33 t-inv F
  0.416667 -0.166667  0.500000    0.00347222  33 t-inv F
 -0.166667 -0.250000  0.500000    0.00347222  33 t-inv F
 -0.166667  0.416667  0.500000    0.00347222  33 t-inv F
 -0.250000 -0.166667  0.500000    0.00347222  33 t-inv F
  0.416667 -0.250000  0.500000    0.00347222  33 t-inv F
  0.166667  0.250000  0.500000    0.00347222  33 t-inv F
  0.250000 -0.416667  0.500000    0.00347222  33 t-inv F
 -0.416667  0.166667  0.500000    0.00347222  33 t-inv F
 -0.500000  0.333333  0.500000    0.00347222  34 t-inv F
  0.166667 -0.500000  0.500000    0.00347222  34 t-inv F
 -0.333333  0.500000  0.500000    0.00347222  34 t-inv F
  0.500000 -0.166667  0.500000    0.00347222  34 t-inv F
 -0.166667 -0.333333  0.500000    0.00347222  34 t-inv F
 -0.166667  0.500000  0.500000    0.00347222  34 t-inv F
 -0.333333 -0.166667  0.500000    0.00347222  34 t-inv F
  0.500000 -0.333333  0.500000    0.00347222  34 t-inv F
  0.166667  0.333333  0.500000    0.00347222  34 t-inv F
  0.333333 -0.500000  0.500000    0.00347222  34 t-inv F
 -0.500000  0.166667  0.500000    0.00347222  34 t-inv F
 -0.583333  0.416667  0.500000    0.00347222  35 t-inv F
  0.166667 -0.583333  0.500000    0.00347222  35 t-inv F
 -0.416667  0.583333  0.500000    0.00347222  35 t-inv F
  0.583333 -0.166667  0.500000    0.00347222  35 t-inv F
 -0.166667 -0.416667  0.500000    0.00347222  35 t-inv F
 -0.500000  0.250000  0.500000    0.00347222  36 t-inv F
  0.250000 -0.500000  0.500000    0.00347222  36 t-inv F
 -0.250000  0.500000  0.500000    0.00347222  36 t-inv F
  0.500000 -0.250000  0.500000    0.00347222  36 t-inv F
 -0.250000 -0.250000  0.500000    0.00347222  36 t-inv F
 -0.583333  0.333333  0.500000    0.00347222  37 t-inv F
  0.250000 -0.583333  0.500000    0.00347222  37 t-inv F
 -0.333333  0.583333  0.500000    0.00347222  37 t-inv F
  0.583333 -0.250000  0.500000    0.00347222  37 t-inv F
 -0.250000 -0.333333  0.500000    0.00347222  37 t-inv F
 -0.250000  0.583333  0.500000    0.00347222  37 t-inv F
 -0.333333 -0.250000  0.500000    0.00347222  37 t-inv F
  0.583333 -0.333333  0.500000    0.00347222  37 t-inv F
  0.250000  0.333333  0.500000    0.00347222  37 t-inv F
  0.333333 -0.583333  0.500000    0.00347222  37 t-inv F
 -0.583333  0.250000  0.500000    0.00347222  37 t-inv F
 -0.333333  0.666667  0.500000    0.00347222  38 t-inv F


--------------------------------------------------------------------------------------------------------




 Dimension of arrays:
   k-points           NKPTS =     38   k-points in BZ     NKDIM =     38   number of bands    NBANDS=     64
   number of dos      NEDOS =    301   number of ions     NIONS =      8
   non local maximal  LDIM  =      4   non local SUM 2l+1 LMDIM =      8
   total plane-waves  NPLWV =  18144
   max r-space proj   IRMAX =      1   max aug-charges    IRDMAX=   7525
   dimension x,y,z NGX =    18 NGY =   18 NGZ =   56
   dimension x,y,z NGXF=    36 NGYF=   36 NGZF=  112
   support grid    NGXF=    36 NGYF=   36 NGZF=  112
   ions per type =               4   4
   NGX,Y,Z   is equivalent  to a cutoff of   9.72,  9.72,  9.23 a.u.
   NGXF,Y,Z  is equivalent  to a cutoff of  19.44, 19.44, 18.47 a.u.

 SYSTEM =  superdoubleZX
 POSCAR =  Si4 C4

 Startparameter for this run:
   NWRITE =      2    write-flag & timer
   PREC   = normal    normal or accurate (medium, high low for compatibility)
   ISTART =      0    job   : 0-new  1-cont  2-samecut
   ICHARG =      2    charge: 1-file 2-atom 10-const
   ISPIN  =      2    spin polarized calculation?
   LNONCOLLINEAR =      F non collinear calculations
   LSORBIT =      F    spin-orbit coupling
   INIWAV =      1    electr: 0-lowe 1-rand  2-diag
   LASPH  =      F    aspherical Exc in radial PAW
 Electronic Relaxation 1
   ENCUT  =  520.0 eV  38.22 Ry    6.18 a.u.   5.73  5.73 18.75*2*pi/ulx,y,z
   ENINI  =  520.0     initial cutoff
   ENAUG  =  644.9 eV  augmentation charge cutoff
   NELM   =     40;   NELMIN=  3; NELMDL=  0     # of ELM steps
   EDIFF  = 0.1E-05   stopping-criterion for ELM
   LREAL  =      F    real-space projection
   NLSPLINE    = F    spline interpolate recip. space projectors
   LCOMPAT=      F    compatible to vasp.4.4
   GGA_COMPAT  = T    GGA compatible to vasp.4.4-vasp.4.6
   LMAXPAW     = -100 max onsite density
   LMAXMIX     =    2 max onsite mixed and CHGCAR
   VOSKOWN=      0    Vosko Wilk Nusair interpolation
   ROPT   =    0.00000   0.00000
 Ionic relaxation
   EDIFFG = -.1E-01   stopping-criterion for IOM
   NSW    =      1    number of steps for IOM
   NBLOCK =      1;   KBLOCK =      1    inner block; outer block
   IBRION =      8    ionic relax: 0-MD 1-quasi-New 2-CG
   NFREE  =      0    steps in history (QN), initial steepest desc. (CG)
   ISIF   =      0    stress and relaxation
   IWAVPR =     11    prediction:  0-non 1-charg 2-wave 3-comb
   ISYM   =      2    0-nonsym 1-usesym 2-fastsym
   LCORR  =      T    Harris-Foulkes like correction to forces

   POTIM  = 0.3000    time-step for ionic-motion
   TEIN   =    0.0    initial temperature
   TEBEG  =    0.0;   TEEND  =   0.0 temperature during run
   SMASS  =  -3.00    Nose mass-parameter (am)
   estimated Nose-frequenzy (Omega)   =  0.10E-29 period in steps = 0.21E+47 mass=  -0.217E-27a.u.
   SCALEE = 1.0000    scale energy and forces
   NPACO  =    256;   APACO  = 10.0  distance and # of slots for P.C.
   PSTRESS=    0.0 pullay stress

  Mass of Ions in am
   POMASS =  28.09 12.01
  Ionic Valenz
   ZVAL   =   4.00  4.00
  Atomic Wigner-Seitz radii
   RWIGS  =  -1.00 -1.00
  virtual crystal weights
   VCA    =   1.00  1.00
   NELECT =      32.0000    total number of electrons
   NUPDOWN=       0.0000    fix difference up-down

 DOS related values:
   EMIN   =  10.00;   EMAX   =-10.00  energy-range for DOS
   EFERMI =   0.00;   METHOD = LEGACY
   ISMEAR =     0;   SIGMA  =   0.01  broadening in eV -4-tet -1-fermi 0-gaus

 Electronic relaxation 2 (details)
   IALGO  =     38    algorithm
   LDIAG  =      T    sub-space diagonalisation (order eigenvalues)
   LSUBROT=      F    optimize rotation matrix (better conditioning)
   TURBO    =      0    0=normal 1=particle mesh
   IRESTART =      0    0=no restart 2=restart with 2 vectors
   NREBOOT  =      0    no. of reboots
   NMIN     =      0    reboot dimension
   EREF     =   0.00    reference energy to select bands
   IMIX   =      4    mixing-type and parameters
     AMIX     =   0.20;   BMIX     =  1.00
     AMIX_MAG =   0.80;   BMIX_MAG =  1.00
     AMIN     =   0.10
     WC   =   100.;   INIMIX=   1;  MIXPRE=   1;  MAXMIX= -45

 Intra band minimization:
   WEIMIN = 0.0010     energy-eigenvalue tresh-hold
   EBREAK =  0.39E-08  absolute break condition
   DEPER  =   0.30     relative break condition

   TIME   =   0.40     timestep for ELM

  volume/ion in A,a.u.               =      10.35        69.85
  Fermi-wavevector in a.u.,A,eV,Ry     =   1.192473  2.253446 19.347358  1.421991
  Thomas-Fermi vector in A             =   2.328510

 Write flags
   LWAVE        =      T    write WAVECAR
   LDOWNSAMPLE  =      F    k-point downsampling of WAVECAR
   LCHARG       =      T    write CHGCAR
   LVTOT        =      F    write LOCPOT, total local potential
   LVHAR        =      F    write LOCPOT, Hartree potential only
   WRT_POTENTIAL= false  ! write potential to hdf5 file
   LELF         =      F    write electronic localiz. function (ELF)
   LORBIT       =     10    0 simple, 1 ext, 2 COOP (PROOUT), +10 PAW based schemes


 Dipole corrections
   LMONO      =      F    monopole corrections only (constant potential shift)
   LDIPOL     =      F    correct potential (dipole corrections)
   IDIPOL     =      0    1-x, 2-y, 3-z, 4-all directions
   EPSILON    =  1.0000000 bulk dielectric constant
   LVACPOTAV  =      F  vacuum potentials using an averaging scheme for the charge density
   VACPOTFLAT =  0.1000000 required flatness to determine vacuum potential
 Exchange correlation treatment:
   GGA     = PS    functional components
   XC_C    = 1    coefficients multiplying the functional components
   LIBXC   =     F    Libxc
   VOSKOWN =     0    Vosko Wilk Nusair interpolation
   LHFCALC =     F    Hartree Fock is set to
   LHFONE  =     F    Hartree Fock one center treatment
   AEXX    =    0.0000 exact exchange contribution

 Parameters of functionals:
   PS:
     No parameter

 Van der Waals corrections
   IVDW    =     0    specifies the selected vdW correction

 Linear response parameters
   LEPSILON=     T    determine dielectric tensor
   LRPA    =     F    only Hartree local field effects (RPA)
   LNABLA  =     F    use nabla operator in PAW spheres
   LVEL    =     F    velocity operator in full k-point grid
   CSHIFT  =0.1000    complex shift for real part using Kramers Kronig
   OMEGAMAX=  -1.0    maximum frequency
   DEG_THRESHOLD= 0.2000000E-02 threshold for treating states as degenerate
   RTIME   =   -0.100 relaxation time in fs
  (WPLASMAI=    0.000 imaginary part of plasma frequency in eV, 0.658/RTIME)
   DFIELD  = 0.0000000 0.0000000 0.0000000 field for delta impulse in time

  Optional k-point grid parameters
   LKPOINTS_OPT  =     F    use optional k-point grid
   KPOINTS_OPT_MODE=     1    mode for optional k-point grid

 Orbital magnetization related:
   ORBITALMAG=     F  switch on orbital magnetization
   LCHIMAG   =     F  perturbation theory with respect to B field
   DQ        =  0.001000  dq finite difference perturbation B field
   LLRAUG    =     F  two centre corrections for induced B field
   LBONE     =     F  B-component reconstruction in AE one-centre
   LVGVCALC  =     T  calculate vGv susceptibility
   LVGVAPPL  =     F  apply vGv susceptibility instead of pGv for G=0

 Random number generation:
   RANDOM_GENERATOR = DEFAULT
   PCG_SEED         = not used


--------------------------------------------------------------------------------------------------------


 linear response using symmetry
 charge density and potential will be updated during run
 spin polarized calculation
 Variant of blocked Davidson
 Davidson routine will perform the subspace rotation
 perform sub-space diagonalisation
    after iterative eigenvector-optimisation
 modified Broyden-mixing scheme, WC =      100.0
 initial mixing is a Kerker type mixing with AMIX =  0.2000 and BMIX =      1.0000
 Hartree-type preconditioning will be used
 using additional bands           48
 reciprocal scheme for non local part
 use partial core corrections
 calculate Harris-corrections to forces
   (improved forces if not selfconsistent)
 use gradient corrections
 use of overlap-Matrix (Vanderbilt PP)
 Gauss-broadening in eV      SIGMA  =   0.01


--------------------------------------------------------------------------------------------------------


  energy-cutoff  :      520.00
  volume of cell :       82.80
      direct lattice vectors                 reciprocal lattice vectors
     3.079396509  0.000000000  0.000000000     0.324738954  0.187488122  0.000000000
    -1.539698254  2.666835605  0.000000000     0.000000000  0.374976245  0.000000000
     0.000000000  0.000000000 10.082482223     0.000000000  0.000000000  0.099181925

  length of vectors
     3.079396509  3.079396509 10.082482223     0.374976245  0.374976245  0.099181925



 k-points in units of 2pi/SCALE and weight: K-Spacing Value to Generate K-Mesh: 0.04
   0.00000000  0.00000000  0.00000000       0.003
   0.02706158  0.01562401  0.00000000       0.021
   0.05412316  0.03124802  0.00000000       0.021
   0.08118474  0.04687203  0.00000000       0.021
   0.10824632  0.06249604  0.00000000       0.021
   0.13530790  0.07812005  0.00000000       0.021
   0.16236948  0.09374406  0.00000000       0.010
   0.02706158  0.04687203  0.00000000       0.021
   0.05412316  0.06249604  0.00000000       0.042
   0.08118474  0.07812005  0.00000000       0.042
   0.10824632  0.09374406  0.00000000       0.042
   0.13530790  0.10936807  0.00000000       0.042
   0.05412316  0.09374406  0.00000000       0.021
   0.08118474  0.10936807  0.00000000       0.042
   0.10824632  0.12499208  0.00000000       0.042
   0.13530790  0.14061609  0.00000000       0.021
   0.08118474  0.14061609  0.00000000       0.021
   0.10824632  0.15624010  0.00000000       0.042
   0.10824632  0.18748812  0.00000000       0.007
   0.00000000  0.00000000  0.04959096       0.003
   0.02706158  0.01562401  0.04959096       0.021
   0.05412316  0.03124802  0.04959096       0.021
   0.08118474  0.04687203  0.04959096       0.021
   0.10824632  0.06249604  0.04959096       0.021
   0.13530790  0.07812005  0.04959096       0.021
   0.16236948  0.09374406  0.04959096       0.010
   0.02706158  0.04687203  0.04959096       0.021
   0.05412316  0.06249604  0.04959096       0.042
   0.08118474  0.07812005  0.04959096       0.042
   0.10824632  0.09374406  0.04959096       0.042
   0.13530790  0.10936807  0.04959096       0.042
   0.05412316  0.09374406  0.04959096       0.021
   0.08118474  0.10936807  0.04959096       0.042
   0.10824632  0.12499208  0.04959096       0.042
   0.13530790  0.14061609  0.04959096       0.021
   0.08118474  0.14061609  0.04959096       0.021
   0.10824632  0.15624010  0.04959096       0.042
   0.10824632  0.18748812  0.04959096       0.007

 k-points in reciprocal lattice and weights: K-Spacing Value to Generate K-Mesh: 0.04
   0.00000000  0.00000000  0.00000000       0.003
   0.08333333  0.00000000  0.00000000       0.021
   0.16666667  0.00000000  0.00000000       0.021
   0.25000000  0.00000000  0.00000000       0.021
   0.33333333  0.00000000  0.00000000       0.021
   0.41666667  0.00000000  0.00000000       0.021
   0.50000000  0.00000000  0.00000000       0.010
   0.08333333  0.08333333  0.00000000       0.021
   0.16666667  0.08333333  0.00000000       0.042
   0.25000000  0.08333333  0.00000000       0.042
   0.33333333  0.08333333  0.00000000       0.042
   0.41666667  0.08333333  0.00000000       0.042
   0.16666667  0.16666667  0.00000000       0.021
   0.25000000  0.16666667  0.00000000       0.042
   0.33333333  0.16666667  0.00000000       0.042
   0.41666667  0.16666667  0.00000000       0.021
   0.25000000  0.25000000  0.00000000       0.021
   0.33333333  0.25000000  0.00000000       0.042
   0.33333333  0.33333333  0.00000000       0.007
   0.00000000  0.00000000  0.50000000       0.003
   0.08333333  0.00000000  0.50000000       0.021
   0.16666667  0.00000000  0.50000000       0.021
   0.25000000  0.00000000  0.50000000       0.021
   0.33333333  0.00000000  0.50000000       0.021
   0.41666667  0.00000000  0.50000000       0.021
   0.50000000  0.00000000  0.50000000       0.010
   0.08333333  0.08333333  0.50000000       0.021
   0.16666667  0.08333333  0.50000000       0.042
   0.25000000  0.08333333  0.50000000       0.042
   0.33333333  0.08333333  0.50000000       0.042
   0.41666667  0.08333333  0.50000000       0.042
   0.16666667  0.16666667  0.50000000       0.021
   0.25000000  0.16666667  0.50000000       0.042
   0.33333333  0.16666667  0.50000000       0.042
   0.41666667  0.16666667  0.50000000       0.021
   0.25000000  0.25000000  0.50000000       0.021
   0.33333333  0.25000000  0.50000000       0.042
   0.33333333  0.33333333  0.50000000       0.007

 position of ions in fractional coordinates (direct lattice)
   0.00000000  0.00000000  0.18788389
   0.00000000  0.00000000  0.68788386
   0.33333334  0.66666669  0.43784769
   0.66666663  0.33333331  0.93784772
   0.00000000  0.00000000  0.00045924
   0.00000000  0.00000000  0.50045922
   0.33333334  0.66666669  0.24980817
   0.66666663  0.33333331  0.74980817

 position of ions in cartesian coordinates  (Angst):
   0.00000000  0.00000000  1.89433603
   0.00000000  0.00000000  6.93557684
  -0.00000000  1.77789046  4.41459152
   1.53969816  0.88894515  9.45583292
   0.00000000  0.00000000  0.00463032
   0.00000000  0.00000000  5.04587122
  -0.00000000  1.77789046  2.51868643
   1.53969816  0.88894515  7.55992755



--------------------------------------------------------------------------------------------------------


 k-point     1 :   0.0000 0.0000 0.0000  plane waves:    2209
 k-point     2 :   0.0833 0.0000 0.0000  plane waves:    2226
 k-point     3 :   0.1667 0.0000 0.0000  plane waves:    2238
 k-point     4 :   0.2500 0.0000 0.0000  plane waves:    2244
 k-point     5 :   0.3333 0.0000 0.0000  plane waves:    2234
 k-point     6 :   0.4167 0.0000 0.0000  plane waves:    2234
 k-point     7 :   0.5000 0.0000 0.0000  plane waves:    2256
 k-point     8 :   0.0833 0.0833 0.0000  plane waves:    2233
 k-point     9 :   0.1667 0.0833 0.0000  plane waves:    2235
 k-point    10 :   0.2500 0.0833 0.0000  plane waves:    2237
 k-point    11 :   0.3333 0.0833 0.0000  plane waves:    2224
 k-point    12 :   0.4167 0.0833 0.0000  plane waves:    2235
 k-point    13 :   0.1667 0.1667 0.0000  plane waves:    2232
 k-point    14 :   0.2500 0.1667 0.0000  plane waves:    2228
 k-point    15 :   0.3333 0.1667 0.0000  plane waves:    2220
 k-point    16 :   0.4167 0.1667 0.0000  plane waves:    2228
 k-point    17 :   0.2500 0.2500 0.0000  plane waves:    2212
 k-point    18 :   0.3333 0.2500 0.0000  plane waves:    2227
 k-point    19 :   0.3333 0.3333 0.0000  plane waves:    2220
 k-point    20 :   0.0000 0.0000 0.5000  plane waves:    2222
 k-point    21 :   0.0833 0.0000 0.5000  plane waves:    2222
 k-point    22 :   0.1667 0.0000 0.5000  plane waves:    2228
 k-point    23 :   0.2500 0.0000 0.5000  plane waves:    2224
 k-point    24 :   0.3333 0.0000 0.5000  plane waves:    2238
 k-point    25 :   0.4167 0.0000 0.5000  plane waves:    2234
 k-point    26 :   0.5000 0.0000 0.5000  plane waves:    2244
 k-point    27 :   0.0833 0.0833 0.5000  plane waves:    2226
 k-point    28 :   0.1667 0.0833 0.5000  plane waves:    2224
 k-point    29 :   0.2500 0.0833 0.5000  plane waves:    2226
 k-point    30 :   0.3333 0.0833 0.5000  plane waves:    2236
 k-point    31 :   0.4167 0.0833 0.5000  plane waves:    2246
 k-point    32 :   0.1667 0.1667 0.5000  plane waves:    2246
 k-point    33 :   0.2500 0.1667 0.5000  plane waves:    2232
 k-point    34 :   0.3333 0.1667 0.5000  plane waves:    2230
 k-point    35 :   0.4167 0.1667 0.5000  plane waves:    2238
 k-point    36 :   0.2500 0.2500 0.5000  plane waves:    2216
 k-point    37 :   0.3333 0.2500 0.5000  plane waves:    2218
 k-point    38 :   0.3333 0.3333 0.5000  plane waves:    2226

 maximum and minimum number of plane-waves per node :      2256     2209

 maximum number of plane-waves:      2256
 maximum index in each direction:
   IXMAX=    5   IYMAX=    5   IZMAX=   18
   IXMIN=   -6   IYMIN=   -6   IZMIN=  -19


 serial   3D FFT for wavefunctions
 parallel 3D FFT for charge:
    minimum data exchange during FFTs selected (reduces bandwidth)


 total amount of memory used by VASP MPI-rank0    46430. kBytes
=======================================================================

   base      :      30000. kBytes
   nonl-proj :      11501. kBytes
   fftplans  :        212. kBytes
   grid      :       1789. kBytes
   one-center:         49. kBytes
   wavefun   :       2879. kBytes

     INWAV:  cpu time      0.0000: real time      0.0000
 Broyden mixing: mesh for mixing (old mesh)
   NGX = 11   NGY = 11   NGZ = 37
  (NGX  = 36   NGY  = 36   NGZ  =112)
  gives a total of   4477 points

 initial charge density was supplied:
 charge density of overlapping atoms calculated
 number of electron      32.0000000 magnetization       0.0000000
 keeping initial charge density in first step


--------------------------------------------------------------------------------------------------------


 Maximum index for augmentation-charges          392 (set IRDMAX)


--------------------------------------------------------------------------------------------------------


 First call to EWALD:  gamma=   0.407
 Maximum number of real-space cells 4x 4x 1
 Maximum number of reciprocal cells 2x 2x 6

    FEWALD:  cpu time      0.0006: real time      0.0006


--------------------------------------- Ionic step        1  -------------------------------------------




--------------------------------------- Iteration      1(   1)  ---------------------------------------


    POTLOK:  cpu time      0.0083: real time      0.0086
    SETDIJ:  cpu time      0.0027: real time      0.0027
     EDDAV:  cpu time      1.5792: real time      1.5814
       DOS:  cpu time      0.0035: real time      0.0035
    --------------------------------------------
      LOOP:  cpu time      1.5937: real time      1.5962

 eigenvalue-minimisations  :  9728
 total energy-change (2. order) :-0.3093339E+02  (-0.1682801E+04)
 number of electron      32.0000000 magnetization       0.0000000
 augmentation part       32.0000000 magnetization       0.0000000

 Free energy of the ion-electron system (eV)
  ---------------------------------------------------
  alpha Z        PSCENC =        44.75753322
  Ewald energy   TEWEN  =     -1138.17340019
  -Hartree energ DENC   =       -83.77731616
  -exchange      EXHF   =         0.00000000
  -V(xc)+E(xc)   XCENC  =        20.85654573
  PAW double counting   =       783.57642149     -715.66022779
  entropy T*S    EENTRO =        -0.00000000
  eigenvalues    EBANDS =        62.29788305
  atomic energy  EATOM  =       995.18916835
  Solvation  Ediel_sol  =         0.00000000
  ---------------------------------------------------
  free energy    TOTEN  =       -30.93339228 eV

  energy without entropy =      -30.93339228  energy(sigma->0) =      -30.93339228


--------------------------------------------------------------------------------------------------------




--------------------------------------- Iteration      1(   2)  ---------------------------------------


     EDDAV:  cpu time      3.2617: real time      3.2630
       DOS:  cpu time      0.0008: real time      0.0008
    --------------------------------------------
      LOOP:  cpu time      3.2625: real time      3.2638

 eigenvalue-minimisations  : 14592
 total energy-change (2. order) :-0.3973862E+02  (-0.3973862E+02)
 number of electron      32.0000000 magnetization       0.0000000
 augmentation part       32.0000000 magnetization       0.0000000

 Free energy of the ion-electron system (eV)
  ---------------------------------------------------
  alpha Z        PSCENC =        44.75753322
  Ewald energy   TEWEN  =     -1138.17340019
  -Hartree energ DENC   =       -83.77731616
  -exchange      EXHF   =         0.00000000
  -V(xc)+E(xc)   XCENC  =        20.85654573
  PAW double counting   =       783.57642149     -715.66022779
  entropy T*S    EENTRO =        -0.00000000
  eigenvalues    EBANDS =        22.55925812
  atomic energy  EATOM  =       995.18916835
  Solvation  Ediel_sol  =         0.00000000
  ---------------------------------------------------
  free energy    TOTEN  =       -70.67201721 eV

  energy without entropy =      -70.67201721  energy(sigma->0) =      -70.67201721


--------------------------------------------------------------------------------------------------------




--------------------------------------- Iteration      1(   3)  ---------------------------------------


     EDDAV:  cpu time      1.6096: real time      1.6105
       DOS:  cpu time      0.0007: real time      0.0007
    --------------------------------------------
      LOOP:  cpu time      1.6103: real time      1.6112

 eigenvalue-minimisations  :  9728
 total energy-change (2. order) :-0.1819062E+00  (-0.1819062E+00)
 number of electron      32.0000000 magnetization       0.0000000
 augmentation part       32.0000000 magnetization       0.0000000

 Free energy of the ion-electron system (eV)
  ---------------------------------------------------
  alpha Z        PSCENC =        44.75753322
  Ewald energy   TEWEN  =     -1138.17340019
  -Hartree energ DENC   =       -83.77731616
  -exchange      EXHF   =         0.00000000
  -V(xc)+E(xc)   XCENC  =        20.85654573
  PAW double counting   =       783.57642149     -715.66022779
  entropy T*S    EENTRO =        -0.00000000
  eigenvalues    EBANDS =        22.37735190
  atomic energy  EATOM  =       995.18916835
  Solvation  Ediel_sol  =         0.00000000
  ---------------------------------------------------
  free energy    TOTEN  =       -70.85392343 eV

  energy without entropy =      -70.85392343  energy(sigma->0) =      -70.85392343


--------------------------------------------------------------------------------------------------------




--------------------------------------- Iteration      1(   4)  ---------------------------------------


     EDDAV:  cpu time      6.0003: real time      6.0024
       DOS:  cpu time      0.0007: real time      0.0007
    --------------------------------------------
      LOOP:  cpu time      6.0011: real time      6.0031

 eigenvalue-minimisations  : 19456
 total energy-change (2. order) :-0.2043620E-03  (-0.2043620E-03)
 number of electron      32.0000000 magnetization       0.0000000
 augmentation part       32.0000000 magnetization       0.0000000

 Free energy of the ion-electron system (eV)
  ---------------------------------------------------
  alpha Z        PSCENC =        44.75753322
  Ewald energy   TEWEN  =     -1138.17340019
  -Hartree energ DENC   =       -83.77731616
  -exchange      EXHF   =         0.00000000
  -V(xc)+E(xc)   XCENC  =        20.85654573
  PAW double counting   =       783.57642149     -715.66022779
  entropy T*S    EENTRO =        -0.00000000
  eigenvalues    EBANDS =        22.37714754
  atomic energy  EATOM  =       995.18916835
  Solvation  Ediel_sol  =         0.00000000
  ---------------------------------------------------
  free energy    TOTEN  =       -70.85412779 eV

  energy without entropy =      -70.85412779  energy(sigma->0) =      -70.85412779


--------------------------------------------------------------------------------------------------------




--------------------------------------- Iteration      1(   5)  ---------------------------------------


     EDDAV:  cpu time      1.5822: real time      1.5831
       DOS:  cpu time      0.0006: real time      0.0006
    CHARGE:  cpu time      0.0157: real time      0.0157
    MIXING:  cpu time      0.0010: real time      0.0010
    --------------------------------------------
      LOOP:  cpu time      1.5994: real time      1.6003

 eigenvalue-minimisations  :  9728
 total energy-change (2. order) :-0.2710294E-09  (-0.2707952E-09)
 number of electron      32.0000000 magnetization      -0.0000000
 augmentation part       -0.1994278 magnetization       0.0000000

 Broyden mixing:
  rms(total) = 0.17474E+01    rms(broyden)= 0.17473E+01
  rms(prec ) = 0.22051E+01
  weight for this iteration     100.00

 Free energy of the ion-electron system (eV)
  ---------------------------------------------------
  alpha Z        PSCENC =        44.75753322
  Ewald energy   TEWEN  =     -1138.17340019
  -Hartree energ DENC   =       -83.77731616
  -exchange      EXHF   =         0.00000000
  -V(xc)+E(xc)   XCENC  =        20.85654573
  PAW double counting   =       783.57642149     -715.66022779
  entropy T*S    EENTRO =        -0.00000000
  eigenvalues    EBANDS =        22.37714754
  atomic energy  EATOM  =       995.18916835
  Solvation  Ediel_sol  =         0.00000000
  ---------------------------------------------------
  free energy    TOTEN  =       -70.85412779 eV

  energy without entropy =      -70.85412779  energy(sigma->0) =      -70.85412779


--------------------------------------------------------------------------------------------------------




--------------------------------------- Iteration      1(   6)  ---------------------------------------


    POTLOK:  cpu time      0.0058: real time      0.0080
    SETDIJ:  cpu time      0.0027: real time      0.0027
     EDDAV:  cpu time      3.2142: real time      3.2155
       DOS:  cpu time      0.0007: real time      0.0007
    CHARGE:  cpu time      0.0138: real time      0.0138
    MIXING:  cpu time      0.0005: real time      0.0005
    --------------------------------------------
      LOOP:  cpu time      3.2377: real time      3.2412

 eigenvalue-minimisations  : 13568
 total energy-change (2. order) : 0.4644360E+01  (-0.7185590E+00)
 number of electron      31.9999999 magnetization       0.0000000
 augmentation part       -0.3276881 magnetization      -0.0000055

 Broyden mixing:
  rms(total) = 0.11829E+01    rms(broyden)= 0.11828E+01
  rms(prec ) = 0.14329E+01
  weight for this iteration     100.00

 eigenvalues of (default mixing * dielectric matrix)
  average eigenvalue GAMMA=   2.5845
  2.5845

 Free energy of the ion-electron system (eV)
  ---------------------------------------------------
  alpha Z        PSCENC =        44.75753322
  Ewald energy   TEWEN  =     -1138.17340019
  -Hartree energ DENC   =       -98.41646685
  -exchange      EXHF   =         0.00000000
  -V(xc)+E(xc)   XCENC  =        22.20416253
  PAW double counting   =      1267.74139318    -1200.03216020
  entropy T*S    EENTRO =        -0.00000000
  eigenvalues    EBANDS =        40.52000231
  atomic energy  EATOM  =       995.18916835
  Solvation  Ediel_sol  =         0.00000000
  ---------------------------------------------------
  free energy    TOTEN  =       -66.20976764 eV

  energy without entropy =      -66.20976764  energy(sigma->0) =      -66.20976764


--------------------------------------------------------------------------------------------------------




--------------------------------------- Iteration      1(   7)  ---------------------------------------


    POTLOK:  cpu time      0.0058: real time      0.0060
    SETDIJ:  cpu time      0.0027: real time      0.0027
     EDDAV:  cpu time      4.0230: real time      4.0246
       DOS:  cpu time      0.0008: real time      0.0008
    CHARGE:  cpu time      0.0143: real time      0.0143
    MIXING:  cpu time      0.0004: real time      0.0004
    --------------------------------------------
      LOOP:  cpu time      4.0471: real time      4.0488

 eigenvalue-minimisations  : 15744
 total energy-change (2. order) : 0.2434466E+01  (-0.1416708E+01)
 number of electron      31.9999998 magnetization      -0.0000000
 augmentation part       -0.4988172 magnetization      -0.0000390

 Broyden mixing:
  rms(total) = 0.49200E+00    rms(broyden)= 0.49192E+00
  rms(prec ) = 0.52537E+00
  weight for this iteration     100.00

 eigenvalues of (default mixing * dielectric matrix)
  average eigenvalue GAMMA=   3.3535
  2.2066  4.5004

 Free energy of the ion-electron system (eV)
  ---------------------------------------------------
  alpha Z        PSCENC =        44.75753322
  Ewald energy   TEWEN  =     -1138.17340019
  -Hartree energ DENC   =      -122.70047179
  -exchange      EXHF   =         0.00000000
  -V(xc)+E(xc)   XCENC  =        24.47381796
  PAW double counting   =      2661.93620787    -2594.55873640
  entropy T*S    EENTRO =        -0.00000000
  eigenvalues    EBANDS =        65.30057959
  atomic energy  EATOM  =       995.18916835
  Solvation  Ediel_sol  =         0.00000000
  ---------------------------------------------------
  free energy    TOTEN  =       -63.77530137 eV

  energy without entropy =      -63.77530137  energy(sigma->0) =      -63.77530137


--------------------------------------------------------------------------------------------------------




--------------------------------------- Iteration      1(   8)  ---------------------------------------


    POTLOK:  cpu time      0.0061: real time      0.0063
    SETDIJ:  cpu time      0.0029: real time      0.0029
     EDDAV:  cpu time      2.2442: real time      2.2453
       DOS:  cpu time      0.0007: real time      0.0007
    CHARGE:  cpu time      0.0134: real time      0.0134
    MIXING:  cpu time      0.0003: real time      0.0003
    --------------------------------------------
      LOOP:  cpu time      2.2676: real time      2.2688

 eigenvalue-minimisations  : 11264
 total energy-change (2. order) : 0.1013843E+00  (-0.1702660E-01)
 number of electron      31.9999998 magnetization      -0.0000000
 augmentation part       -0.4910956 magnetization      -0.0000081

 Broyden mixing:
  rms(total) = 0.69579E-01    rms(broyden)= 0.69567E-01
  rms(prec ) = 0.78731E-01
  weight for this iteration     100.00

 eigenvalues of (default mixing * dielectric matrix)
  average eigenvalue GAMMA=   2.5664
  4.5937  2.3205  0.7850

 Free energy of the ion-electron system (eV)
  ---------------------------------------------------
  alpha Z        PSCENC =        44.75753322
  Ewald energy   TEWEN  =     -1138.17340019
  -Hartree energ DENC   =      -126.50329958
  -exchange      EXHF   =         0.00000000
  -V(xc)+E(xc)   XCENC  =        25.05719573
  PAW double counting   =      4196.88085908    -4129.66573663
  entropy T*S    EENTRO =        -0.00000000
  eigenvalues    EBANDS =        68.78376288
  atomic energy  EATOM  =       995.18916835
  Solvation  Ediel_sol  =         0.00000000
  ---------------------------------------------------
  free energy    TOTEN  =       -63.67391712 eV

  energy without entropy =      -63.67391712  energy(sigma->0) =      -63.67391712


--------------------------------------------------------------------------------------------------------




--------------------------------------- Iteration      1(   9)  ---------------------------------------


    POTLOK:  cpu time      0.0057: real time      0.0059
    SETDIJ:  cpu time      0.0027: real time      0.0027
     EDDAV:  cpu time      5.0185: real time      5.0202
       DOS:  cpu time      0.0007: real time      0.0007
    CHARGE:  cpu time      0.0136: real time      0.0136
    MIXING:  cpu time      0.0002: real time      0.0002
    --------------------------------------------
      LOOP:  cpu time      5.0413: real time      5.0433

 eigenvalue-minimisations  : 17344
 total energy-change (2. order) : 0.3292279E-02  (-0.1821899E-02)
 number of electron      31.9999998 magnetization      -0.0000000
 augmentation part       -0.4843373 magnetization       0.0000000

 Broyden mixing:
  rms(total) = 0.33250E-01    rms(broyden)= 0.33250E-01
  rms(prec ) = 0.36375E-01
  weight for this iteration     100.00

 eigenvalues of (default mixing * dielectric matrix)
  average eigenvalue GAMMA=   2.4958
  4.7164  1.1268  2.2503  1.8898

 Free energy of the ion-electron system (eV)
  ---------------------------------------------------
  alpha Z        PSCENC =        44.75753322
  Ewald energy   TEWEN  =     -1138.17340019
  -Hartree energ DENC   =      -126.07577653
  -exchange      EXHF   =         0.00000000
  -V(xc)+E(xc)   XCENC  =        25.04310159
  PAW double counting   =      4280.79140767    -4213.58036863
  entropy T*S    EENTRO =        -0.00000000
  eigenvalues    EBANDS =        68.37770967
  atomic energy  EATOM  =       995.18916835
  Solvation  Ediel_sol  =         0.00000000
  ---------------------------------------------------
  free energy    TOTEN  =       -63.67062484 eV

  energy without entropy =      -63.67062484  energy(sigma->0) =      -63.67062484


--------------------------------------------------------------------------------------------------------




--------------------------------------- Iteration      1(  10)  ---------------------------------------


    POTLOK:  cpu time      0.0057: real time      0.0059
    SETDIJ:  cpu time      0.0030: real time      0.0030
     EDDAV:  cpu time      2.3219: real time      2.3228
       DOS:  cpu time      0.0007: real time      0.0007
    CHARGE:  cpu time      0.0138: real time      0.0138
    MIXING:  cpu time      0.0004: real time      0.0005
    --------------------------------------------
      LOOP:  cpu time      2.3455: real time      2.3467

 eigenvalue-minimisations  : 11392
 total energy-change (2. order) :-0.2755311E-03  (-0.3380383E-04)
 number of electron      31.9999998 magnetization       0.0000000
 augmentation part       -0.4843469 magnetization       0.0000007

 Broyden mixing:
  rms(total) = 0.18645E-01    rms(broyden)= 0.18644E-01
  rms(prec ) = 0.19924E-01
  weight for this iteration     100.00

 eigenvalues of (default mixing * dielectric matrix)
  average eigenvalue GAMMA=   2.8505
  4.9050  4.9050  2.3266  0.9752  1.1406

 Free energy of the ion-electron system (eV)
  ---------------------------------------------------
  alpha Z        PSCENC =        44.75753322
  Ewald energy   TEWEN  =     -1138.17340019
  -Hartree energ DENC   =      -126.22918670
  -exchange      EXHF   =         0.00000000
  -V(xc)+E(xc)   XCENC  =        25.06981093
  PAW double counting   =      4293.11640644    -4225.90311464
  entropy T*S    EENTRO =        -0.00000000
  eigenvalues    EBANDS =        68.50188221
  atomic energy  EATOM  =       995.18916835
  Solvation  Ediel_sol  =         0.00000000
  ---------------------------------------------------
  free energy    TOTEN  =       -63.67090037 eV

  energy without entropy =      -63.67090037  energy(sigma->0) =      -63.67090037


--------------------------------------------------------------------------------------------------------




--------------------------------------- Iteration      1(  11)  ---------------------------------------


    POTLOK:  cpu time      0.0059: real time      0.0061
    SETDIJ:  cpu time      0.0029: real time      0.0029
     EDDAV:  cpu time      4.4225: real time      4.4240
       DOS:  cpu time      0.0007: real time      0.0007
    CHARGE:  cpu time      0.0135: real time      0.0135
    MIXING:  cpu time      0.0003: real time      0.0003
    --------------------------------------------
      LOOP:  cpu time      4.4459: real time      4.4476

 eigenvalue-minimisations  : 16512
 total energy-change (2. order) :-0.1645155E-03  (-0.3158647E-04)
 number of electron      31.9999998 magnetization       0.0000000
 augmentation part       -0.4845598 magnetization       0.0000010

 Broyden mixing:
  rms(total) = 0.30161E-02    rms(broyden)= 0.30155E-02
  rms(prec ) = 0.35522E-02
  weight for this iteration     100.00

 eigenvalues of (default mixing * dielectric matrix)
  average eigenvalue GAMMA=   2.7864
  5.1241  5.1241  2.3168  2.0870  1.0333  1.0333

 Free energy of the ion-electron system (eV)
  ---------------------------------------------------
  alpha Z        PSCENC =        44.75753322
  Ewald energy   TEWEN  =     -1138.17340019
  -Hartree energ DENC   =      -126.22789103
  -exchange      EXHF   =         0.00000000
  -V(xc)+E(xc)   XCENC  =        25.07602483
  PAW double counting   =      4240.76883216    -4173.54647958
  entropy T*S    EENTRO =        -0.00000000
  eigenvalues    EBANDS =        68.48514734
  atomic energy  EATOM  =       995.18916835
  Solvation  Ediel_sol  =         0.00000000
  ---------------------------------------------------
  free energy    TOTEN  =       -63.67106489 eV

  energy without entropy =      -63.67106489  energy(sigma->0) =      -63.67106489


--------------------------------------------------------------------------------------------------------




--------------------------------------- Iteration      1(  12)  ---------------------------------------


    POTLOK:  cpu time      0.0059: real time      0.0061
    SETDIJ:  cpu time      0.0029: real time      0.0029
     EDDAV:  cpu time      3.7588: real time      3.7604
       DOS:  cpu time      0.0007: real time      0.0007
    CHARGE:  cpu time      0.0135: real time      0.0135
    MIXING:  cpu time      0.0003: real time      0.0003
    --------------------------------------------
      LOOP:  cpu time      3.7821: real time      3.7839

 eigenvalue-minimisations  : 14912
 total energy-change (2. order) : 0.9653440E-06  (-0.2971816E-05)
 number of electron      31.9999998 magnetization       0.0000000
 augmentation part       -0.4843344 magnetization      -0.0000005

 Broyden mixing:
  rms(total) = 0.16534E-02    rms(broyden)= 0.16532E-02
  rms(prec ) = 0.18366E-02
  weight for this iteration     100.00

 eigenvalues of (default mixing * dielectric matrix)
  average eigenvalue GAMMA=   2.8231
  4.9284  4.9284  4.4543  2.3199  0.9871  1.0718  1.0718

 Free energy of the ion-electron system (eV)
  ---------------------------------------------------
  alpha Z        PSCENC =        44.75753322
  Ewald energy   TEWEN  =     -1138.17340019
  -Hartree energ DENC   =      -126.24625780
  -exchange      EXHF   =         0.00000000
  -V(xc)+E(xc)   XCENC  =        25.07975597
  PAW double counting   =      4236.67690515    -4169.45601351
  entropy T*S    EENTRO =        -0.00000000
  eigenvalues    EBANDS =        68.50124488
  atomic energy  EATOM  =       995.18916835
  Solvation  Ediel_sol  =         0.00000000
  ---------------------------------------------------
  free energy    TOTEN  =       -63.67106392 eV

  energy without entropy =      -63.67106392  energy(sigma->0) =      -63.67106392


--------------------------------------------------------------------------------------------------------




--------------------------------------- Iteration      1(  13)  ---------------------------------------


    POTLOK:  cpu time      0.0057: real time      0.0059
    SETDIJ:  cpu time      0.0027: real time      0.0027
     EDDAV:  cpu time      3.7591: real time      3.7606
       DOS:  cpu time      0.0008: real time      0.0008
    --------------------------------------------
      LOOP:  cpu time      3.7683: real time      3.7699

 eigenvalue-minimisations  : 14848
 total energy-change (2. order) : 0.6278342E-06  (-0.8907983E-06)
 number of electron      31.9999998 magnetization       0.0000000
 augmentation part       -0.4843344 magnetization      -0.0000005

 Free energy of the ion-electron system (eV)
  ---------------------------------------------------
  alpha Z        PSCENC =        44.75753322
  Ewald energy   TEWEN  =     -1138.17340019
  -Hartree energ DENC   =      -126.26832125
  -exchange      EXHF   =         0.00000000
  -V(xc)+E(xc)   XCENC  =        25.08155460
  PAW double counting   =      4238.42720395    -4171.20836017
  entropy T*S    EENTRO =        -0.00000000
  eigenvalues    EBANDS =        68.52355818
  atomic energy  EATOM  =       995.18916835
  Solvation  Ediel_sol  =         0.00000000
  ---------------------------------------------------
  free energy    TOTEN  =       -63.67106330 eV

  energy without entropy =      -63.67106330  energy(sigma->0) =      -63.67106330


--------------------------------------------------------------------------------------------------------




 average (electrostatic) potential at core
  the test charge radii are     0.9892  0.6991
  (the norm of the test charge is              1.0000)
       1 -80.1021       2 -80.1021       3 -80.1481       4 -80.1481       5 -44.9917
       6 -44.9917       7 -44.9312       8 -44.9312



 E-fermi :   8.1827     XC(G=0): -11.5004     alpha+bet :-16.4285

 val. band max:        8.1196758202   @ k =   0.0000   0.0000   0.0000
 cond. band min:      10.2271366041   @ k =   0.5000   0.0000   0.0000
 fundamental gap:      2.1074607839
 Fermi energy:         8.1826552018

 spin component 1

 k-point     1 :       0.0000    0.0000    0.0000
  band No.  band energies     occupation
      1      -7.3790      1.00000
      2      -6.1970      1.00000
      3      -6.1602      1.00000
      4      -3.7778      1.00000
      5      -0.5532      1.00000
      6       3.7143      1.00000
      7       3.7540      1.00000
      8       6.9291      1.00000
      9       6.9291      1.00000
     10       7.3911      1.00000
     11       7.3911      1.00000
     12       7.5339      1.00000
     13       7.5339      1.00000
     14       8.0649      1.00000
     15       8.1197      1.00000
     16       8.1197      1.00000
     17      13.1417      0.00000
     18      13.7201      0.00000
     19      14.3485      0.00000
     20      14.3579      0.00000
     21      15.0185      0.00000
     22      15.0185      0.00000
     23      15.0346      0.00000
     24      15.0346      0.00000
     25      15.4399      0.00000
     26      16.0945      0.00000
     27      16.0945      0.00000
     28      16.3656      0.00000
     29      16.3656      0.00000
     30      16.9319      0.00000
     31      17.4710      0.00000
     32      18.7856      0.00000
     33      20.2344      0.00000
     34      20.2344      0.00000
     35      21.0849      0.00000
     36      21.0849      0.00000
     37      22.0072      0.00000
     38      22.4208      0.00000
     39      23.8529      0.00000
     40      23.8529      0.00000
     41      24.2133      0.00000
     42      25.0080      0.00000
     43      25.0080      0.00000
     44      25.0950      0.00000
     45      25.1827      0.00000
     46      25.3378      0.00000
     47      25.3378      0.00000
     48      26.7248      0.00000
     49      26.7248      0.00000
     50      27.9817      0.00000
     51      29.4801      0.00000
     52      30.1606      0.00000
     53      30.6773      0.00000
     54      30.6773      0.00000
     55      32.2867      0.00000
     56      32.2867      0.00000
     57      33.0531      0.00000
     58      34.5113      0.00000
     59      36.1595      0.00000
     60      36.9253      0.00000
     61      36.9253      0.00000
     62      37.7088      0.00000
     63      38.1354      0.00000
     64      38.2207      0.00000

 k-point     2 :       0.0833    0.0000    0.0000
  band No.  band energies     occupation
      1      -7.2579      1.00000
      2      -6.0799      1.00000
      3      -6.0425      1.00000
      4      -3.6753      1.00000
      5      -0.4415      1.00000
      6       3.7538      1.00000
      7       3.7957      1.00000
      8       6.2411      1.00000
      9       6.6949      1.00000
     10       6.8421      1.00000
     11       6.9889      1.00000
     12       7.2535      1.00000
     13       7.3590      1.00000
     14       7.6644      1.00000
     15       7.9837      1.00000
     16       8.0694      1.00000
     17      13.4767      0.00000
     18      14.0201      0.00000
     19      14.2410      0.00000
     20      14.5512      0.00000
     21      14.8931      0.00000
     22      14.9824      0.00000
     23      15.1737      0.00000
     24      15.3973      0.00000
     25      15.4770      0.00000
     26      16.0120      0.00000
     27      16.0790      0.00000
     28      16.2941      0.00000
     29      16.7929      0.00000
     30      17.1677      0.00000
     31      17.4876      0.00000
     32      18.7172      0.00000
     33      19.5345      0.00000
     34      19.6525      0.00000
     35      21.2549      0.00000
     36      21.6366      0.00000
[...]
     -0.000000  1.777890  4.414592     0.000000    0.000000   -0.187385
      1.539698  0.888945  9.455833     0.000000    0.000000    0.187385
      0.000000  0.000000  0.004630    -0.000000   -0.000000   -0.595806
      0.000000  0.000000  5.045871    -0.000000   -0.000000    0.595806
     -0.000000  1.777890  2.518686    -0.000000    0.000000   -0.159315
      1.539698  0.888945  7.559928    -0.000000   -0.000000    0.159315

   2 f  =   26.948806 THz   169.324342 2PiTHz  898.915411 cm-1   111.451256 meV
             X         Y         Z           dx          dy          dz
      0.000000  0.000000  1.894336     0.000000    0.000000   -0.192107
      0.000000  0.000000  6.935577     0.000000    0.000000    0.192107
     -0.000000  1.777890  4.414592     0.000000    0.000000   -0.291699
      1.539698  0.888945  9.455833     0.000000    0.000000    0.291699
      0.000000  0.000000  0.004630    -0.000000   -0.000000   -0.160683
      0.000000  0.000000  5.045871    -0.000000   -0.000000    0.160683
     -0.000000  1.777890  2.518686    -0.000000   -0.000000    0.593454
      1.539698  0.888945  7.559928     0.000000   -0.000000   -0.593454

   3 f  =   24.744501 THz   155.474285 2PiTHz  825.387706 cm-1   102.334987 meV
             X         Y         Z           dx          dy          dz
      0.000000  0.000000  1.894336     0.000000    0.000000    0.015045
      0.000000  0.000000  6.935577    -0.000000   -0.000000    0.015045
     -0.000000  1.777890  4.414592     0.000000    0.000000    0.017138
      1.539698  0.888945  9.455833    -0.000000    0.000000    0.017138
      0.000000  0.000000  0.004630    -0.000000   -0.000000   -0.523744
      0.000000  0.000000  5.045871    -0.000000   -0.000000   -0.523744
     -0.000000  1.777890  2.518686    -0.000000   -0.000000    0.474523
      1.539698  0.888945  7.559928     0.000000    0.000000    0.474523

   4 f  =   23.698689 THz   148.903253 2PiTHz  790.503166 cm-1    98.009857 meV
             X         Y         Z           dx          dy          dz
      0.000000  0.000000  1.894336     0.000000   -0.267294   -0.000000
      0.000000  0.000000  6.935577     0.000000   -0.267294   -0.000000
     -0.000000  1.777890  4.414592     0.000000   -0.279498   -0.000000
      1.539698  0.888945  9.455833     0.000000   -0.279498    0.000000
      0.000000  0.000000  0.004630    -0.000000    0.430090   -0.000000
      0.000000  0.000000  5.045871    -0.000000    0.430090   -0.000000
     -0.000000  1.777890  2.518686    -0.000000    0.406765    0.000000
      1.539698  0.888945  7.559928    -0.000000    0.406765    0.000000

   5 f  =   23.698689 THz   148.903253 2PiTHz  790.503166 cm-1    98.009857 meV
             X         Y         Z           dx          dy          dz
      0.000000  0.000000  1.894336     0.267294    0.000000   -0.000000
      0.000000  0.000000  6.935577     0.267294    0.000000    0.000000
     -0.000000  1.777890  4.414592     0.279498    0.000000    0.000000
      1.539698  0.888945  9.455833     0.279498    0.000000   -0.000000
      0.000000  0.000000  0.004630    -0.430090   -0.000000    0.000000
      0.000000  0.000000  5.045871    -0.430090   -0.000000   -0.000000
     -0.000000  1.777890  2.518686    -0.406765   -0.000000   -0.000000
      1.539698  0.888945  7.559928    -0.406765   -0.000000   -0.000000

   6 f  =   23.331647 THz   146.597061 2PiTHz  778.259971 cm-1    96.491895 meV
             X         Y         Z           dx          dy          dz
      0.000000  0.000000  1.894336     0.000001    0.263780    0.000000
      0.000000  0.000000  6.935577    -0.000001   -0.263780    0.000000
     -0.000000  1.777890  4.414592     0.000001    0.258120    0.000000
      1.539698  0.888945  9.455833    -0.000001   -0.258120    0.000000
      0.000000  0.000000  0.004630     0.000002    0.367625   -0.000000
      0.000000  0.000000  5.045871    -0.000002   -0.367625   -0.000000
     -0.000000  1.777890  2.518686    -0.000002   -0.478170   -0.000000
      1.539698  0.888945  7.559928     0.000002    0.478170   -0.000000

   7 f  =   23.331647 THz   146.597061 2PiTHz  778.259971 cm-1    96.491895 meV
             X         Y         Z           dx          dy          dz
      0.000000  0.000000  1.894336    -0.263780    0.000001   -0.000000
      0.000000  0.000000  6.935577     0.263780   -0.000001   -0.000000
     -0.000000  1.777890  4.414592    -0.258120    0.000001   -0.000000
      1.539698  0.888945  9.455833     0.258120   -0.000001   -0.000000
      0.000000  0.000000  0.004630    -0.367625    0.000002    0.000000
      0.000000  0.000000  5.045871     0.367625   -0.000002    0.000000
     -0.000000  1.777890  2.518686     0.478170   -0.000002    0.000000
      1.539698  0.888945  7.559928    -0.478170    0.000002    0.000000

   8 f  =   23.199768 THz   145.768440 2PiTHz  773.860954 cm-1    95.946487 meV
             X         Y         Z           dx          dy          dz
      0.000000  0.000000  1.894336     0.000000    0.000000    0.265949
      0.000000  0.000000  6.935577     0.000000    0.000000    0.265949
     -0.000000  1.777890  4.414592    -0.000000   -0.000000    0.280582
      1.539698  0.888945  9.455833     0.000000    0.000000    0.280582
      0.000000  0.000000  0.004630    -0.000000   -0.000000   -0.388204
      0.000000  0.000000  5.045871     0.000000    0.000000   -0.388204
     -0.000000  1.777890  2.518686     0.000000    0.000000   -0.447037
      1.539698  0.888945  7.559928    -0.000000   -0.000000   -0.447037

   9 f  =   23.098319 THz   145.131020 2PiTHz  770.476997 cm-1    95.526930 meV
             X         Y         Z           dx          dy          dz
      0.000000  0.000000  1.894336     0.000007   -0.263301    0.000000
      0.000000  0.000000  6.935577    -0.000007    0.263301    0.000000
     -0.000000  1.777890  4.414592    -0.000007    0.265808    0.000000
      1.539698  0.888945  9.455833     0.000007   -0.265808    0.000000
      0.000000  0.000000  0.004630    -0.000012    0.476533   -0.000000
      0.000000  0.000000  5.045871     0.000012   -0.476533   -0.000000
     -0.000000  1.777890  2.518686    -0.000009    0.364603   -0.000000
      1.539698  0.888945  7.559928     0.000009   -0.364603   -0.000000

  10 f  =   23.098319 THz   145.131020 2PiTHz  770.476997 cm-1    95.526930 meV
             X         Y         Z           dx          dy          dz
      0.000000  0.000000  1.894336    -0.263301   -0.000007    0.000000
      0.000000  0.000000  6.935577     0.263301    0.000007    0.000000
     -0.000000  1.777890  4.414592     0.265808    0.000007    0.000000
      1.539698  0.888945  9.455833    -0.265808   -0.000007    0.000000
      0.000000  0.000000  0.004630     0.476533    0.000012   -0.000000
      0.000000  0.000000  5.045871    -0.476533   -0.000012   -0.000000
     -0.000000  1.777890  2.518686     0.364603    0.000009   -0.000000
      1.539698  0.888945  7.559928    -0.364603   -0.000009   -0.000000

  11 f  =   22.851370 THz   143.579391 2PiTHz  762.239648 cm-1    94.505629 meV
             X         Y         Z           dx          dy          dz
      0.000000  0.000000  1.894336     0.000009   -0.262529    0.000000
      0.000000  0.000000  6.935577     0.000009   -0.262529    0.000000
     -0.000000  1.777890  4.414592    -0.000009    0.248145    0.000000
      1.539698  0.888945  9.455833    -0.000009    0.248145    0.000000
      0.000000  0.000000  0.004630     0.000015   -0.418685   -0.000000
      0.000000  0.000000  5.045871     0.000015   -0.418685   -0.000000
     -0.000000  1.777890  2.518686    -0.000015    0.440687    0.000000
      1.539698  0.888945  7.559928    -0.000015    0.440687    0.000000

  12 f  =   22.851370 THz   143.579391 2PiTHz  762.239648 cm-1    94.505629 meV
             X         Y         Z           dx          dy          dz
      0.000000  0.000000  1.894336    -0.262529   -0.000009    0.000000
      0.000000  0.000000  6.935577    -0.262529   -0.000009   -0.000000
     -0.000000  1.777890  4.414592     0.248145    0.000009   -0.000000
      1.539698  0.888945  9.455833     0.248145    0.000009    0.000000
      0.000000  0.000000  0.004630    -0.418685   -0.000015   -0.000000
      0.000000  0.000000  5.045871    -0.418685   -0.000015   -0.000000
     -0.000000  1.777890  2.518686     0.440687    0.000015   -0.000000
      1.539698  0.888945  7.559928     0.440687    0.000015   -0.000000

  13 f  =   17.929253 THz   112.652822 2PiTHz  598.055522 cm-1    74.149401 meV
             X         Y         Z           dx          dy          dz
      0.000000  0.000000  1.894336    -0.000000    0.000000   -0.503966
      0.000000  0.000000  6.935577     0.000000    0.000000   -0.503966
     -0.000000  1.777890  4.414592    -0.000000    0.000000    0.495925
      1.539698  0.888945  9.455833     0.000000   -0.000000    0.495925
      0.000000  0.000000  0.004630     0.000000    0.000000    0.006786
      0.000000  0.000000  5.045871    -0.000000   -0.000000    0.006786
     -0.000000  1.777890  2.518686     0.000000   -0.000000    0.005557
      1.539698  0.888945  7.559928    -0.000000    0.000000    0.005557

  14 f  =   12.079936 THz    75.900477 2PiTHz  402.943297 cm-1    49.958579 meV
             X         Y         Z           dx          dy          dz
      0.000000  0.000000  1.894336    -0.000000   -0.000000   -0.543850
      0.000000  0.000000  6.935577    -0.000000    0.000000    0.543850
     -0.000000  1.777890  4.414592     0.000000   -0.000000   -0.285975
      1.539698  0.888945  9.455833    -0.000000    0.000000    0.285975
      0.000000  0.000000  0.004630    -0.000000    0.000000   -0.084642
      0.000000  0.000000  5.045871     0.000000   -0.000000    0.084642
     -0.000000  1.777890  2.518686     0.000000   -0.000000   -0.339531
      1.539698  0.888945  7.559928    -0.000000   -0.000000    0.339531

  15 f  =   11.837661 THz    74.378219 2PiTHz  394.861877 cm-1    48.956611 meV
             X         Y         Z           dx          dy          dz
      0.000000  0.000000  1.894336     0.000000   -0.000000    0.287753
      0.000000  0.000000  6.935577     0.000000    0.000000   -0.287753
     -0.000000  1.777890  4.414592    -0.000000    0.000000   -0.545909
      1.539698  0.888945  9.455833    -0.000000   -0.000000    0.545909
      0.000000  0.000000  0.004630    -0.000000   -0.000000    0.334711
      0.000000  0.000000  5.045871    -0.000000    0.000000   -0.334711
     -0.000000  1.777890  2.518686     0.000000   -0.000000   -0.084555
      1.539698  0.888945  7.559928     0.000000    0.000000    0.084555

  16 f  =    7.618674 THz    47.869538 2PiTHz  254.131596 cm-1    31.508288 meV
             X         Y         Z           dx          dy          dz
      0.000000  0.000000  1.894336    -0.000020    0.429419    0.000000
      0.000000  0.000000  6.935577    -0.000020    0.429419    0.000000
     -0.000000  1.777890  4.414592     0.000020   -0.430269    0.000000
      1.539698  0.888945  9.455833     0.000020   -0.430269   -0.000000
      0.000000  0.000000  0.004630     0.000012   -0.254836   -0.000000
      0.000000  0.000000  5.045871     0.000012   -0.254836    0.000000
     -0.000000  1.777890  2.518686    -0.000012    0.255982    0.000000
      1.539698  0.888945  7.559928    -0.000012    0.255982    0.000000

  17 f  =    7.618674 THz    47.869538 2PiTHz  254.131596 cm-1    31.508288 meV
             X         Y         Z           dx          dy          dz
      0.000000  0.000000  1.894336    -0.429419   -0.000020    0.000000
      0.000000  0.000000  6.935577    -0.429419   -0.000020   -0.000000
     -0.000000  1.777890  4.414592     0.430269    0.000020   -0.000000
      1.539698  0.888945  9.455833     0.430269    0.000020    0.000000
      0.000000  0.000000  0.004630     0.254836    0.000012    0.000000
      0.000000  0.000000  5.045871     0.254836    0.000012   -0.000000
     -0.000000  1.777890  2.518686    -0.255982   -0.000012   -0.000000
      1.539698  0.888945  7.559928    -0.255982   -0.000012   -0.000000

  18 f  =    5.902828 THz    37.088564 2PiTHz  196.897158 cm-1    24.412125 meV
             X         Y         Z           dx          dy          dz
      0.000000  0.000000  1.894336    -0.000254   -0.552506   -0.000000
      0.000000  0.000000  6.935577     0.000254    0.552506    0.000000
     -0.000000  1.777890  4.414592    -0.000110   -0.239720    0.000000
      1.539698  0.888945  9.455833     0.000110    0.239720   -0.000000
      0.000000  0.000000  0.004630     0.000047    0.101145   -0.000000
      0.000000  0.000000  5.045871    -0.000047   -0.101145    0.000000
     -0.000000  1.777890  2.518686    -0.000164   -0.356428    0.000000
      1.539698  0.888945  7.559928     0.000164    0.356428    0.000000

  19 f  =    5.902828 THz    37.088564 2PiTHz  196.897158 cm-1    24.412125 meV
             X         Y         Z           dx          dy          dz
      0.000000  0.000000  1.894336     0.552506   -0.000254   -0.000000
      0.000000  0.000000  6.935577    -0.552506    0.000254   -0.000000
     -0.000000  1.777890  4.414592     0.239720   -0.000110    0.000000
      1.539698  0.888945  9.455833    -0.239720    0.000110    0.000000
      0.000000  0.000000  0.004630    -0.101145    0.000047    0.000000
      0.000000  0.000000  5.045871     0.101145   -0.000047   -0.000000
     -0.000000  1.777890  2.518686     0.356428   -0.000164   -0.000000
      1.539698  0.888945  7.559928    -0.356428    0.000164   -0.000000

  20 f  =    5.663999 THz    35.587956 2PiTHz  188.930673 cm-1    23.424408 meV
             X         Y         Z           dx          dy          dz
      0.000000  0.000000  1.894336    -0.000118    0.236284    0.000000
      0.000000  0.000000  6.935577     0.000118   -0.236284   -0.000000
     -0.000000  1.777890  4.414592     0.000276   -0.552498   -0.000000
      1.539698  0.888945  9.455833    -0.000276    0.552498    0.000000
      0.000000  0.000000  0.004630    -0.000179    0.357125    0.000000
      0.000000  0.000000  5.045871     0.000179   -0.357125   -0.000000
     -0.000000  1.777890  2.518686    -0.000053    0.106665   -0.000000
      1.539698  0.888945  7.559928     0.000053   -0.106665   -0.000000

  21 f  =    5.663999 THz    35.587956 2PiTHz  188.930673 cm-1    23.424408 meV
             X         Y         Z           dx          dy          dz
      0.000000  0.000000  1.894336     0.236284    0.000118   -0.000000
      0.000000  0.000000  6.935577    -0.236284   -0.000118   -0.000000
     -0.000000  1.777890  4.414592    -0.552498   -0.000276    0.000000
      1.539698  0.888945  9.455833     0.552498    0.000276    0.000000
      0.000000  0.000000  0.004630     0.357125    0.000179    0.000000
      0.000000  0.000000  5.045871    -0.357125   -0.000179   -0.000000
     -0.000000  1.777890  2.518686     0.106665    0.000053    0.000000
      1.539698  0.888945  7.559928    -0.106665   -0.000053    0.000000

  22 f/i=    0.006139 THz     0.038575 2PiTHz    0.204789 cm-1     0.025391 meV
             X         Y         Z           dx          dy          dz
      0.000000  0.000000  1.894336    -0.000000   -0.000000   -0.418406
      0.000000  0.000000  6.935577    -0.000000   -0.000000   -0.418406
     -0.000000  1.777890  4.414592    -0.000000   -0.000000   -0.418376
      1.539698  0.888945  9.455833    -0.000000   -0.000000   -0.418376
      0.000000  0.000000  0.004630    -0.000000   -0.000000   -0.273758
      0.000000  0.000000  5.045871    -0.000000   -0.000000   -0.273758
     -0.000000  1.777890  2.518686    -0.000000   -0.000000   -0.273779
      1.539698  0.888945  7.559928    -0.000000   -0.000000   -0.273779

  23 f/i=    0.009543 THz     0.059962 2PiTHz    0.318330 cm-1     0.039468 meV
             X         Y         Z           dx          dy          dz
      0.000000  0.000000  1.894336     0.364453   -0.205927    0.000000
      0.000000  0.000000  6.935577     0.364453   -0.205927    0.000000
     -0.000000  1.777890  4.414592     0.364393   -0.205893    0.000000
      1.539698  0.888945  9.455833     0.364393   -0.205893    0.000000
      0.000000  0.000000  0.004630     0.238088   -0.134527    0.000000
      0.000000  0.000000  5.045871     0.238088   -0.134527    0.000000
     -0.000000  1.777890  2.518686     0.238131   -0.134551    0.000000
      1.539698  0.888945  7.559928     0.238131   -0.134551    0.000000

  24 f/i=    0.009543 THz     0.059962 2PiTHz    0.318330 cm-1     0.039468 meV
             X         Y         Z           dx          dy          dz
      0.000000  0.000000  1.894336    -0.205927   -0.364453    0.000000
      0.000000  0.000000  6.935577    -0.205927   -0.364453    0.000000
     -0.000000  1.777890  4.414592    -0.205893   -0.364393    0.000000
      1.539698  0.888945  9.455833    -0.205893   -0.364393    0.000000
      0.000000  0.000000  0.004630    -0.134527   -0.238088    0.000000
      0.000000  0.000000  5.045871    -0.134527   -0.238088    0.000000
     -0.000000  1.777890  2.518686    -0.134551   -0.238131    0.000000
      1.539698  0.888945  7.559928    -0.134551   -0.238131    0.000000



--------------------------------------------------------------------------------------------------------




 MACROSCOPIC STATIC DIELECTRIC TENSOR IONIC CONTRIBUTION
 ------------------------------------------------------
           3.256224    -0.000000     0.000000
          -0.000000     3.256224     0.000000
           0.000000     0.000000     3.654108
 ------------------------------------------------------



--------------------------------------------------------------------------------------------------------


 writing wavefunctions
     LOOP+:  cpu time    176.2056: real time    176.4375
    4ORBIT:  cpu time      0.0000: real time      0.0000



 total charge

# of ion       s       p       d       tot
------------------------------------------
    1        0.709   0.970   0.000   1.679
    2        0.709   0.970   0.000   1.679
    3        0.708   0.971   0.000   1.680
    4        0.708   0.971   0.000   1.680
    5        0.833   1.698   0.000   2.531
    6        0.833   1.698   0.000   2.531
    7        0.833   1.700   0.000   2.533
    8        0.833   1.700   0.000   2.533
--------------------------------------------------
tot          6.167  10.679   0.000  16.846



 magnetization (x)

# of ion       s       p       d       tot
------------------------------------------
    1        0.000   0.000   0.000   0.000
    2        0.000   0.000   0.000   0.000
    3        0.000   0.000   0.000   0.000
    4        0.000   0.000   0.000   0.000
    5        0.000  -0.000   0.000  -0.000
    6        0.000  -0.000   0.000  -0.000
    7       -0.000  -0.000   0.000  -0.000
    8       -0.000  -0.000   0.000  -0.000
--------------------------------------------------
tot         -0.000   0.000   0.000   0.000


 total amount of memory used by VASP MPI-rank0    46430. kBytes
=======================================================================

   base      :      30000. kBytes
   nonl-proj :      11501. kBytes
   fftplans  :        212. kBytes
   grid      :       1789. kBytes
   one-center:         49. kBytes
   wavefun   :       2879. kBytes



 General timing and accounting information for this job:
 ========================================================

                  Total CPU time used (sec):      178.314
                            User time (sec):      176.535
                          System time (sec):        1.780
                         Elapsed time (sec):      179.831

                   Maximum memory used (kb):      234916.
                   Average memory used (kb):          N/A

                          Minor page faults:       268913
                          Major page faults:         1461
                 Voluntary context switches:         5400
