 vasp.6.4.3 19Mar24 (build Nov 05 2024 17:56:24) complex

 executed on             LinuxIFC date 2025.06.26  23:56:05
 running   64 mpi-ranks, on    3 nodes
 distrk:  each k-point on   64 cores,    1 groups
 distr:  one band on NCORE=  16 cores,    4 groups


--------------------------------------------------------------------------------------------------------


 INCAR:
   SYSTEM = superdoubleZX
   NCORE = 16
   NSIM = 16
   LVHAR = .TRUE.
   PREC = Normal
   ISTART = 1
   ISPIN = 2
   NUPDOWN = 2
   NELECT = 30
   ENCUT = 520
   GGA = PS
   ISMEAR = 0
   SIGMA = 0.01
   EDIFF = 1E-6
   NELM = 40
   NELMIN = 3
   LREAL = .FALSE.
   AMIX = 0.2
   AMIX_MAG = 0.8
   LORBIT = 10
   ISIF = 2
   ISYM = -1
   EDIFFG = -1E-2
   NSW = 0
   IBRION = -1
   POTIM = 0.3
   LDMATRIX = .TRUE.
   LHYPERFINE = .TRUE.
   NGYROMAG = 10.705 3.0766

 POTCAR:    PAW_PBE C 08Apr2002
 POTCAR:    PAW_PBE N 08Apr2002
 -----------------------------------------------------------------------------
|                                                                             |
|           W    W    AA    RRRRR   N    N  II  N    N   GGGG   !!!           |
|           W    W   A  A   R    R  NN   N  II  NN   N  G    G  !!!           |
|           W    W  A    A  R    R  N N  N  II  N N  N  G       !!!           |
|           W WW W  AAAAAA  RRRRR   N  N N  II  N  N N  G  GGG   !            |
|           WW  WW  A    A  R   R   N   NN  II  N   NN  G    G                |
|           W    W  A    A  R    R  N    N  II  N    N   GGGG   !!!           |
|                                                                             |
|     You use a magnetic or noncollinear calculation, but did not specify     |
|     the initial magnetic moment with the MAGMOM tag. Note that a            |
|     default of 0.286 will be used for all atoms. This ferromagnetic         |
|     setup may break the symmetry of the crystal, in particular it may       |
|     rule out finding an antiferromagnetic solution. Thence, we              |
|     recommend setting the initial magnetic moment manually or verifying     |
|     carefully that this magnetic setup is desired.                          |
|                                                                             |
 -----------------------------------------------------------------------------

 POTCAR:    PAW_PBE C 08Apr2002
   SHA256 =  253f7b50bb8d59471dbedb8285d89021f4a42ed1a2c5d38a03a736e69125dd95 C/POTCAR
   COPYR  = (c) Copyright 08Apr2002 Georg Kresse
   COPYR  = This file is part of the software VASP. Any use, copying, and all other rights are regul
   COPYR  = If you do not have a valid VASP license, you may not use, copy or distribute this file.
   VRHFIN =C: s2p2
   LEXCH  = PE
   EATOM  =   147.1560 eV,   10.8157 Ry

   TITLE  = PAW_PBE C 08Apr2002
   LULTRA =        F    use ultrasoft PP ?
   IUNSCR =        1    unscreen: 0-lin 1-nonlin 2-no
   RPACOR =    1.200    partial core radius
   POMASS =   12.011; ZVAL   =    4.000    mass and valenz
   RCORE  =    1.500    outmost cutoff radius
   RWIGS  =    1.630; RWIGS  =    0.863    wigner-seitz radius (au A)
   ENMAX  =  400.000; ENMIN  =  300.000 eV
   ICORE  =        2    local potential
   LCOR   =        T    correct aug charges
   LPAW   =        T    paw PP
   EAUG   =  644.873
   DEXC   =    0.000
   RMAX   =    1.529    core radius for proj-oper
   RAUG   =    1.300    factor for augmentation sphere
   RDEP   =    1.501    radius for radial grids
   RDEPT  =    1.300    core radius for aug-charge

   Atomic configuration
    4 entries
     n  l   j            E        occ.
     1  0  0.50      -273.3789   2.0000
     2  0  0.50       -13.7508   2.0000
     2  1  0.50        -5.2854   2.0000
     3  2  1.50        -5.4423   0.0000
   Description
     l       E           TYP  RCUT    TYP  RCUT
     0    -13.7508458     23  1.200
     0     -8.2022199     23  1.200
     1     -5.2854383     23  1.500
     1     34.0145650     23  1.500
     2     -5.4423304      7  1.500
  local pseudopotential read in
  partial core-charges read in
  partial kinetic energy density read in
  atomic valenz-charges read in
  non local Contribution for L=           0  read in
    real space projection operators read in
  non local Contribution for L=           0  read in
    real space projection operators read in
  non local Contribution for L=           1  read in
    real space projection operators read in
  non local Contribution for L=           1  read in
    real space projection operators read in
    PAW grid and wavefunctions read in

   number of l-projection  operators is LMAX  =           4
   number of lm-projection operators is LMMAX =           8

 POTCAR:    PAW_PBE N 08Apr2002
   SHA256 =  e053789ff3a61a86a1b75d8a110fcc91f86041011e7b0817c7c99e4e8a6349d7 N/POTCAR
   COPYR  = (c) Copyright 08Apr2002 Georg Kresse
   COPYR  = This file is part of the software VASP. Any use, copying, and all other rights are regul
   COPYR  = If you do not have a valid VASP license, you may not use, copy or distribute this file.
   VRHFIN =N: s2p3
   LEXCH  = PE
   EATOM  =   264.5486 eV,   19.4438 Ry

   TITLE  = PAW_PBE N 08Apr2002
   LULTRA =        F    use ultrasoft PP ?
   IUNSCR =        1    unscreen: 0-lin 1-nonlin 2-no
   RPACOR =    1.200    partial core radius
   POMASS =   14.001; ZVAL   =    5.000    mass and valenz
   RCORE  =    1.500    outmost cutoff radius
   RWIGS  =    1.400; RWIGS  =    0.741    wigner-seitz radius (au A)
   ENMAX  =  400.000; ENMIN  =  300.000 eV
   ICORE  =        2    local potential
   LCOR   =        T    correct aug charges
   LPAW   =        T    paw PP
   EAUG   =  627.112
   DEXC   =    0.000
   RMAX   =    1.529    core radius for proj-oper
   RAUG   =    1.300    factor for augmentation sphere
   RDEP   =    1.514    radius for radial grids
   RDEPT  =    1.338    core radius for aug-charge

   Atomic configuration
    4 entries
     n  l   j            E        occ.
     1  0  0.50      -384.7179   2.0000
     2  0  0.50       -18.5828   2.0000
     2  1  0.50        -7.0898   3.0000
     3  2  1.50        -6.8029   0.0000
   Description
     l       E           TYP  RCUT    TYP  RCUT
     0    -18.5828119     23  1.200
     0    -13.5018863     23  1.200
     1     -7.0897853     23  1.500
     1      9.5240782     23  1.500
     2     -6.8029130      7  1.500
  local pseudopotential read in
  partial core-charges read in
  partial kinetic energy density read in
  atomic valenz-charges read in
  non local Contribution for L=           0  read in
    real space projection operators read in
  non local Contribution for L=           0  read in
    real space projection operators read in
  non local Contribution for L=           1  read in
    real space projection operators read in
  non local Contribution for L=           1  read in
    real space projection operators read in
    PAW grid and wavefunctions read in

   number of l-projection  operators is LMAX  =           4
   number of lm-projection operators is LMMAX =           8

 -----------------------------------------------------------------------------
|                                                                             |
|               ----> ADVICE to this user running VASP <----                  |
|                                                                             |
|     You enforced a specific xc type in the INCAR file but a different       |
|     type was found in the POTCAR file.                                      |
|     I HOPE YOU KNOW WHAT YOU ARE DOING!                                     |
|                                                                             |
 -----------------------------------------------------------------------------

  PAW_PBE C 08Apr2002                   :
 energy of atom  1       EATOM= -147.1560
 kinetic energy error for atom=    0.0071 (will be added to EATOM!!)
  PAW_PBE N 08Apr2002                   :
 energy of atom  2       EATOM= -264.5486
 kinetic energy error for atom=    0.0125 (will be added to EATOM!!)


 POSCAR: C8
  positions in direct lattice
  No initial velocities read in


 exchange-correlation table for PS
   RHO(1)=    0.500       N(1)  =     2000
   RHO(2)=  100.500       N(2)  =     4000



--------------------------------------------------------------------------------------------------------


 ion  position               nearest neighbor table
   1  0.500  0.000  0.500-   4 1.54   5 1.54   6 1.54   7 1.54
   2  0.500  0.500  0.000-   4 1.54   5 1.54   6 1.54   7 1.54
   3  0.000  0.500  0.500-   4 1.54   5 1.54   6 1.54   7 1.54
   4  0.750  0.250  0.750-   1 1.54   2 1.54   3 1.54
   5  0.750  0.750  0.250-   1 1.54   2 1.54   3 1.54
   6  0.250  0.750  0.750-   1 1.54   2 1.54   3 1.54
   7  0.250  0.250  0.250-   1 1.54   2 1.54   3 1.54


IMPORTANT INFORMATION: All symmetrisations will be switched off!
NOSYMM: (Re-)initialisation of all symmetry stuff for point group C_1.


----------------------------------------------------------------------------------------

                                     Primitive cell

  volume of cell :      45.1463

  direct lattice vectors                    reciprocal lattice vectors
     3.560745001  0.000000000  0.000000000     0.280840105  0.000000000  0.000000000
     0.000000000  3.560745001  0.000000000     0.000000000  0.280840105  0.000000000
     0.000000000  0.000000000  3.560745001     0.000000000  0.000000000  0.280840105

  length of vectors
     3.560745001  3.560745001  3.560745001     0.280840105  0.280840105  0.280840105

  position of ions in fractional coordinates (direct lattice)
     0.500000000  0.000000000  0.500000000
     0.500000000  0.500000000  0.000000000
     0.000000000  0.500000000  0.500000000
     0.750000000  0.250000000  0.750000000
     0.750000000  0.750000000  0.250000000
     0.250000000  0.750000000  0.750000000
     0.250000000  0.250000000  0.250000000

  ion indices of the primitive-cell ions
   primitive index   ion index
                 1           1
                 2           2
                 3           3
                 4           4
                 5           5
                 6           6
                 7           7

----------------------------------------------------------------------------------------



 KPOINTS: K-Spacing Value to Generate K-Mesh: 0.04

Automatic generation of k-mesh.
 Grid dimensions read from file:
 generate k-points for:    7    7    7

 Generating k-lattice:

  Cartesian coordinates                     Fractional coordinates (reciprocal lattice)
     0.040120015  0.000000000  0.000000000     0.142857143  0.000000000  0.000000000
     0.000000000  0.040120015  0.000000000     0.000000000  0.142857143  0.000000000
     0.000000000  0.000000000  0.040120015     0.000000000  0.000000000  0.142857143

  Length of vectors
     0.040120015  0.040120015  0.040120015

  Shift w.r.t. Gamma in fractional coordinates (k-lattice)
     0.000000000  0.000000000  0.000000000


 Subroutine IBZKPT returns following result:
 ===========================================

 Found    343 irreducible k-points:

 Following reciprocal coordinates:
            Coordinates               Weight
  0.000000  0.000000  0.000000      1.000000
  0.142857  0.000000  0.000000      1.000000
  0.285714  0.000000  0.000000      1.000000
  0.428571  0.000000  0.000000      1.000000
 -0.428571  0.000000  0.000000      1.000000
 -0.285714  0.000000  0.000000      1.000000
 -0.142857  0.000000  0.000000      1.000000
  0.000000  0.142857  0.000000      1.000000
  0.142857  0.142857  0.000000      1.000000
  0.285714  0.142857  0.000000      1.000000
  0.428571  0.142857  0.000000      1.000000
 -0.428571  0.142857  0.000000      1.000000
 -0.285714  0.142857  0.000000      1.000000
 -0.142857  0.142857  0.000000      1.000000
  0.000000  0.285714  0.000000      1.000000
  0.142857  0.285714  0.000000      1.000000
  0.285714  0.285714  0.000000      1.000000
  0.428571  0.285714  0.000000      1.000000
 -0.428571  0.285714  0.000000      1.000000
 -0.285714  0.285714  0.000000      1.000000
 -0.142857  0.285714  0.000000      1.000000
  0.000000  0.428571  0.000000      1.000000
  0.142857  0.428571  0.000000      1.000000
  0.285714  0.428571  0.000000      1.000000
  0.428571  0.428571  0.000000      1.000000
 -0.428571  0.428571  0.000000      1.000000
 -0.285714  0.428571  0.000000      1.000000
 -0.142857  0.428571  0.000000      1.000000
  0.000000 -0.428571  0.000000      1.000000
  0.142857 -0.428571  0.000000      1.000000
  0.285714 -0.428571  0.000000      1.000000
  0.428571 -0.428571  0.000000      1.000000
 -0.428571 -0.428571  0.000000      1.000000
 -0.285714 -0.428571  0.000000      1.000000
 -0.142857 -0.428571  0.000000      1.000000
  0.000000 -0.285714  0.000000      1.000000
  0.142857 -0.285714  0.000000      1.000000
  0.285714 -0.285714  0.000000      1.000000
  0.428571 -0.285714  0.000000      1.000000
 -0.428571 -0.285714  0.000000      1.000000
 -0.285714 -0.285714  0.000000      1.000000
 -0.142857 -0.285714  0.000000      1.000000
  0.000000 -0.142857  0.000000      1.000000
  0.142857 -0.142857  0.000000      1.000000
  0.285714 -0.142857  0.000000      1.000000
  0.428571 -0.142857  0.000000      1.000000
 -0.428571 -0.142857  0.000000      1.000000
 -0.285714 -0.142857  0.000000      1.000000
 -0.142857 -0.142857  0.000000      1.000000
  0.000000  0.000000  0.142857      1.000000
  0.142857  0.000000  0.142857      1.000000
  0.285714  0.000000  0.142857      1.000000
  0.428571  0.000000  0.142857      1.000000
 -0.428571  0.000000  0.142857      1.000000
 -0.285714  0.000000  0.142857      1.000000
 -0.142857  0.000000  0.142857      1.000000
  0.000000  0.142857  0.142857      1.000000
  0.142857  0.142857  0.142857      1.000000
  0.285714  0.142857  0.142857      1.000000
  0.428571  0.142857  0.142857      1.000000
 -0.428571  0.142857  0.142857      1.000000
 -0.285714  0.142857  0.142857      1.000000
 -0.142857  0.142857  0.142857      1.000000
  0.000000  0.285714  0.142857      1.000000
  0.142857  0.285714  0.142857      1.000000
  0.285714  0.285714  0.142857      1.000000
  0.428571  0.285714  0.142857      1.000000
 -0.428571  0.285714  0.142857      1.000000
 -0.285714  0.285714  0.142857      1.000000
 -0.142857  0.285714  0.142857      1.000000
  0.000000  0.428571  0.142857      1.000000
  0.142857  0.428571  0.142857      1.000000
  0.285714  0.428571  0.142857      1.000000
  0.428571  0.428571  0.142857      1.000000
 -0.428571  0.428571  0.142857      1.000000
 -0.285714  0.428571  0.142857      1.000000
 -0.142857  0.428571  0.142857      1.000000
  0.000000 -0.428571  0.142857      1.000000
  0.142857 -0.428571  0.142857      1.000000
  0.285714 -0.428571  0.142857      1.000000
  0.428571 -0.428571  0.142857      1.000000
 -0.428571 -0.428571  0.142857      1.000000
 -0.285714 -0.428571  0.142857      1.000000
 -0.142857 -0.428571  0.142857      1.000000
  0.000000 -0.285714  0.142857      1.000000
  0.142857 -0.285714  0.142857      1.000000
  0.285714 -0.285714  0.142857      1.000000
  0.428571 -0.285714  0.142857      1.000000
 -0.428571 -0.285714  0.142857      1.000000
 -0.285714 -0.285714  0.142857      1.000000
 -0.142857 -0.285714  0.142857      1.000000
  0.000000 -0.142857  0.142857      1.000000
  0.142857 -0.142857  0.142857      1.000000
  0.285714 -0.142857  0.142857      1.000000
  0.428571 -0.142857  0.142857      1.000000
 -0.428571 -0.142857  0.142857      1.000000
 -0.285714 -0.142857  0.142857      1.000000
 -0.142857 -0.142857  0.142857      1.000000
  0.000000  0.000000  0.285714      1.000000
  0.142857  0.000000  0.285714      1.000000
  0.285714  0.000000  0.285714      1.000000
  0.428571  0.000000  0.285714      1.000000
 -0.428571  0.000000  0.285714      1.000000
 -0.285714  0.000000  0.285714      1.000000
 -0.142857  0.000000  0.285714      1.000000
  0.000000  0.142857  0.285714      1.000000
  0.142857  0.142857  0.285714      1.000000
  0.285714  0.142857  0.285714      1.000000
  0.428571  0.142857  0.285714      1.000000
 -0.428571  0.142857  0.285714      1.000000
 -0.285714  0.142857  0.285714      1.000000
 -0.142857  0.142857  0.285714      1.000000
  0.000000  0.285714  0.285714      1.000000
  0.142857  0.285714  0.285714      1.000000
  0.285714  0.285714  0.285714      1.000000
  0.428571  0.285714  0.285714      1.000000
 -0.428571  0.285714  0.285714      1.000000
 -0.285714  0.285714  0.285714      1.000000
 -0.142857  0.285714  0.285714      1.000000
  0.000000  0.428571  0.285714      1.000000
  0.142857  0.428571  0.285714      1.000000
  0.285714  0.428571  0.285714      1.000000
  0.428571  0.428571  0.285714      1.000000
 -0.428571  0.428571  0.285714      1.000000
 -0.285714  0.428571  0.285714      1.000000
 -0.142857  0.428571  0.285714      1.000000
  0.000000 -0.428571  0.285714      1.000000
  0.142857 -0.428571  0.285714      1.000000
  0.285714 -0.428571  0.285714      1.000000
  0.428571 -0.428571  0.285714      1.000000
 -0.428571 -0.428571  0.285714      1.000000
 -0.285714 -0.428571  0.285714      1.000000
 -0.142857 -0.428571  0.285714      1.000000
  0.000000 -0.285714  0.285714      1.000000
  0.142857 -0.285714  0.285714      1.000000
  0.285714 -0.285714  0.285714      1.000000
  0.428571 -0.285714  0.285714      1.000000
 -0.428571 -0.285714  0.285714      1.000000
 -0.285714 -0.285714  0.285714      1.000000
 -0.142857 -0.285714  0.285714      1.000000
  0.000000 -0.142857  0.285714      1.000000
  0.142857 -0.142857  0.285714      1.000000
  0.285714 -0.142857  0.285714      1.000000
  0.428571 -0.142857  0.285714      1.000000
 -0.428571 -0.142857  0.285714      1.000000
 -0.285714 -0.142857  0.285714      1.000000
 -0.142857 -0.142857  0.285714      1.000000
  0.000000  0.000000  0.428571      1.000000
  0.142857  0.000000  0.428571      1.000000
  0.285714  0.000000  0.428571      1.000000
  0.428571  0.000000  0.428571      1.000000
 -0.428571  0.000000  0.428571      1.000000
 -0.285714  0.000000  0.428571      1.000000
 -0.142857  0.000000  0.428571      1.000000
  0.000000  0.142857  0.428571      1.000000
  0.142857  0.142857  0.428571      1.000000
  0.285714  0.142857  0.428571      1.000000
  0.428571  0.142857  0.428571      1.000000
 -0.428571  0.142857  0.428571      1.000000
 -0.285714  0.142857  0.428571      1.000000
 -0.142857  0.142857  0.428571      1.000000
  0.000000  0.285714  0.428571      1.000000
  0.142857  0.285714  0.428571      1.000000
  0.285714  0.285714  0.428571      1.000000
  0.428571  0.285714  0.428571      1.000000
 -0.428571  0.285714  0.428571      1.000000
 -0.285714  0.285714  0.428571      1.000000
 -0.142857  0.285714  0.428571      1.000000
  0.000000  0.428571  0.428571      1.000000
  0.142857  0.428571  0.428571      1.000000
  0.285714  0.428571  0.428571      1.000000
  0.428571  0.428571  0.428571      1.000000
 -0.428571  0.428571  0.428571      1.000000
 -0.285714  0.428571  0.428571      1.000000
 -0.142857  0.428571  0.428571      1.000000
  0.000000 -0.428571  0.428571      1.000000
  0.142857 -0.428571  0.428571      1.000000
  0.285714 -0.428571  0.428571      1.000000
  0.428571 -0.428571  0.428571      1.000000
 -0.428571 -0.428571  0.428571      1.000000
 -0.285714 -0.428571  0.428571      1.000000
 -0.142857 -0.428571  0.428571      1.000000
  0.000000 -0.285714  0.428571      1.000000
  0.142857 -0.285714  0.428571      1.000000
  0.285714 -0.285714  0.428571      1.000000
  0.428571 -0.285714  0.428571      1.000000
 -0.428571 -0.285714  0.428571      1.000000
 -0.285714 -0.285714  0.428571      1.000000
 -0.142857 -0.285714  0.428571      1.000000
  0.000000 -0.142857  0.428571      1.000000
  0.142857 -0.142857  0.428571      1.000000
  0.285714 -0.142857  0.428571      1.000000
  0.428571 -0.142857  0.428571      1.000000
 -0.428571 -0.142857  0.428571      1.000000
 -0.285714 -0.142857  0.428571      1.000000
 -0.142857 -0.142857  0.428571      1.000000
  0.000000  0.000000 -0.428571      1.000000
  0.142857  0.000000 -0.428571      1.000000
  0.285714  0.000000 -0.428571      1.000000
  0.428571  0.000000 -0.428571      1.000000
 -0.428571  0.000000 -0.428571      1.000000
 -0.285714  0.000000 -0.428571      1.000000
 -0.142857  0.000000 -0.428571      1.000000
  0.000000  0.142857 -0.428571      1.000000
  0.142857  0.142857 -0.428571      1.000000
  0.285714  0.142857 -0.428571      1.000000
  0.428571  0.142857 -0.428571      1.000000
 -0.428571  0.142857 -0.428571      1.000000
 -0.285714  0.142857 -0.428571      1.000000
 -0.142857  0.142857 -0.428571      1.000000
  0.000000  0.285714 -0.428571      1.000000
  0.142857  0.285714 -0.428571      1.000000
  0.285714  0.285714 -0.428571      1.000000
  0.428571  0.285714 -0.428571      1.000000
 -0.428571  0.285714 -0.428571      1.000000
 -0.285714  0.285714 -0.428571      1.000000
 -0.142857  0.285714 -0.428571      1.000000
  0.000000  0.428571 -0.428571      1.000000
  0.142857  0.428571 -0.428571      1.000000
  0.285714  0.428571 -0.428571      1.000000
  0.428571  0.428571 -0.428571      1.000000
 -0.428571  0.428571 -0.428571      1.000000
 -0.285714  0.428571 -0.428571      1.000000
 -0.142857  0.428571 -0.428571      1.000000
  0.000000 -0.428571 -0.428571      1.000000
  0.142857 -0.428571 -0.428571      1.000000
  0.285714 -0.428571 -0.428571      1.000000
  0.428571 -0.428571 -0.428571      1.000000
 -0.428571 -0.428571 -0.428571      1.000000
 -0.285714 -0.428571 -0.428571      1.000000
 -0.142857 -0.428571 -0.428571      1.000000
  0.000000 -0.285714 -0.428571      1.000000
  0.142857 -0.285714 -0.428571      1.000000
  0.285714 -0.285714 -0.428571      1.000000
  0.428571 -0.285714 -0.428571      1.000000
 -0.428571 -0.285714 -0.428571      1.000000
 -0.285714 -0.285714 -0.428571      1.000000
 -0.142857 -0.285714 -0.428571      1.000000
  0.000000 -0.142857 -0.428571      1.000000
  0.142857 -0.142857 -0.428571      1.000000
  0.285714 -0.142857 -0.428571      1.000000
  0.428571 -0.142857 -0.428571      1.000000
 -0.428571 -0.142857 -0.428571      1.000000
 -0.285714 -0.142857 -0.428571      1.000000
 -0.142857 -0.142857 -0.428571      1.000000
  0.000000  0.000000 -0.285714      1.000000
  0.142857  0.000000 -0.285714      1.000000
  0.285714  0.000000 -0.285714      1.000000
  0.428571  0.000000 -0.285714      1.000000
 -0.428571  0.000000 -0.285714      1.000000
 -0.285714  0.000000 -0.285714      1.000000
 -0.142857  0.000000 -0.285714      1.000000
  0.000000  0.142857 -0.285714      1.000000
  0.142857  0.142857 -0.285714      1.000000
  0.285714  0.142857 -0.285714      1.000000
  0.428571  0.142857 -0.285714      1.000000
 -0.428571  0.142857 -0.285714      1.000000
 -0.285714  0.142857 -0.285714      1.000000
 -0.142857  0.142857 -0.285714      1.000000
  0.000000  0.285714 -0.285714      1.000000
  0.142857  0.285714 -0.285714      1.000000
  0.285714  0.285714 -0.285714      1.000000
  0.428571  0.285714 -0.285714      1.000000
 -0.428571  0.285714 -0.285714      1.000000
 -0.285714  0.285714 -0.285714      1.000000
 -0.142857  0.285714 -0.285714      1.000000
  0.000000  0.428571 -0.285714      1.000000
  0.142857  0.428571 -0.285714      1.000000
  0.285714  0.428571 -0.285714      1.000000
  0.428571  0.428571 -0.285714      1.000000
 -0.428571  0.428571 -0.285714      1.000000
 -0.285714  0.428571 -0.285714      1.000000
 -0.142857  0.428571 -0.285714      1.000000
  0.000000 -0.428571 -0.285714      1.000000
  0.142857 -0.428571 -0.285714      1.000000
  0.285714 -0.428571 -0.285714      1.000000
  0.428571 -0.428571 -0.285714      1.000000
 -0.428571 -0.428571 -0.285714      1.000000
 -0.285714 -0.428571 -0.285714      1.000000
 -0.142857 -0.428571 -0.285714      1.000000
  0.000000 -0.285714 -0.285714      1.000000
  0.142857 -0.285714 -0.285714      1.000000
  0.285714 -0.285714 -0.285714      1.000000
  0.428571 -0.285714 -0.285714      1.000000
 -0.428571 -0.285714 -0.285714      1.000000
 -0.285714 -0.285714 -0.285714      1.000000
 -0.142857 -0.285714 -0.285714      1.000000
  0.000000 -0.142857 -0.285714      1.000000
  0.142857 -0.142857 -0.285714      1.000000
  0.285714 -0.142857 -0.285714      1.000000
  0.428571 -0.142857 -0.285714      1.000000
 -0.428571 -0.142857 -0.285714      1.000000
 -0.285714 -0.142857 -0.285714      1.000000
 -0.142857 -0.142857 -0.285714      1.000000
  0.000000  0.000000 -0.142857      1.000000
  0.142857  0.000000 -0.142857      1.000000
  0.285714  0.000000 -0.142857      1.000000
  0.428571  0.000000 -0.142857      1.000000
 -0.428571  0.000000 -0.142857      1.000000
 -0.285714  0.000000 -0.142857      1.000000
 -0.142857  0.000000 -0.142857      1.000000
  0.000000  0.142857 -0.142857      1.000000
  0.142857  0.142857 -0.142857      1.000000
  0.285714  0.142857 -0.142857      1.000000
  0.428571  0.142857 -0.142857      1.000000
 -0.428571  0.142857 -0.142857      1.000000
 -0.285714  0.142857 -0.142857      1.000000
 -0.142857  0.142857 -0.142857      1.000000
  0.000000  0.285714 -0.142857      1.000000
  0.142857  0.285714 -0.142857      1.000000
  0.285714  0.285714 -0.142857      1.000000
  0.428571  0.285714 -0.142857      1.000000
 -0.428571  0.285714 -0.142857      1.000000
 -0.285714  0.285714 -0.142857      1.000000
 -0.142857  0.285714 -0.142857      1.000000
  0.000000  0.428571 -0.142857      1.000000
  0.142857  0.428571 -0.142857      1.000000
  0.285714  0.428571 -0.142857      1.000000
  0.428571  0.428571 -0.142857      1.000000
 -0.428571  0.428571 -0.142857      1.000000
 -0.285714  0.428571 -0.142857      1.000000
 -0.142857  0.428571 -0.142857      1.000000
  0.000000 -0.428571 -0.142857      1.000000
  0.142857 -0.428571 -0.142857      1.000000
  0.285714 -0.428571 -0.142857      1.000000
  0.428571 -0.428571 -0.142857      1.000000
 -0.428571 -0.428571 -0.142857      1.000000
 -0.285714 -0.428571 -0.142857      1.000000
 -0.142857 -0.428571 -0.142857      1.000000
  0.000000 -0.285714 -0.142857      1.000000
  0.142857 -0.285714 -0.142857      1.000000
  0.285714 -0.285714 -0.142857      1.000000
  0.428571 -0.285714 -0.142857      1.000000
 -0.428571 -0.285714 -0.142857      1.000000
 -0.285714 -0.285714 -0.142857      1.000000
 -0.142857 -0.285714 -0.142857      1.000000
  0.000000 -0.142857 -0.142857      1.000000
  0.142857 -0.142857 -0.142857      1.000000
  0.285714 -0.142857 -0.142857      1.000000
  0.428571 -0.142857 -0.142857      1.000000
 -0.428571 -0.142857 -0.142857      1.000000
 -0.285714 -0.142857 -0.142857      1.000000
 -0.142857 -0.142857 -0.142857      1.000000

 Following cartesian coordinates:
            Coordinates               Weight
  0.000000  0.000000  0.000000      1.000000
  0.040120  0.000000  0.000000      1.000000
  0.080240  0.000000  0.000000      1.000000
  0.120360  0.000000  0.000000      1.000000
 -0.120360  0.000000  0.000000      1.000000
 -0.080240  0.000000  0.000000      1.000000
 -0.040120  0.000000  0.000000      1.000000
  0.000000  0.040120  0.000000      1.000000
  0.040120  0.040120  0.000000      1.000000
  0.080240  0.040120  0.000000      1.000000
  0.120360  0.040120  0.000000      1.000000
 -0.120360  0.040120  0.000000      1.000000
 -0.080240  0.040120  0.000000      1.000000
 -0.040120  0.040120  0.000000      1.000000
  0.000000  0.080240  0.000000      1.000000
  0.040120  0.080240  0.000000      1.000000
  0.080240  0.080240  0.000000      1.000000
  0.120360  0.080240  0.000000      1.000000
 -0.120360  0.080240  0.000000      1.000000
 -0.080240  0.080240  0.000000      1.000000
 -0.040120  0.080240  0.000000      1.000000
  0.000000  0.120360  0.000000      1.000000
  0.040120  0.120360  0.000000      1.000000
  0.080240  0.120360  0.000000      1.000000
  0.120360  0.120360  0.000000      1.000000
 -0.120360  0.120360  0.000000      1.000000
 -0.080240  0.120360  0.000000      1.000000
 -0.040120  0.120360  0.000000      1.000000
  0.000000 -0.120360  0.000000      1.000000
  0.040120 -0.120360  0.000000      1.000000
  0.080240 -0.120360  0.000000      1.000000
  0.120360 -0.120360  0.000000      1.000000
 -0.120360 -0.120360  0.000000      1.000000
 -0.080240 -0.120360  0.000000      1.000000
 -0.040120 -0.120360  0.000000      1.000000
  0.000000 -0.080240  0.000000      1.000000
  0.040120 -0.080240  0.000000      1.000000
  0.080240 -0.080240  0.000000      1.000000
  0.120360 -0.080240  0.000000      1.000000
 -0.120360 -0.080240  0.000000      1.000000
 -0.080240 -0.080240  0.000000      1.000000
 -0.040120 -0.080240  0.000000      1.000000
  0.000000 -0.040120  0.000000      1.000000
  0.040120 -0.040120  0.000000      1.000000
  0.080240 -0.040120  0.000000      1.000000
  0.120360 -0.040120  0.000000      1.000000
 -0.120360 -0.040120  0.000000      1.000000
 -0.080240 -0.040120  0.000000      1.000000
 -0.040120 -0.040120  0.000000      1.000000
  0.000000  0.000000  0.040120      1.000000
  0.040120  0.000000  0.040120      1.000000
  0.080240  0.000000  0.040120      1.000000
  0.120360  0.000000  0.040120      1.000000
 -0.120360  0.000000  0.040120      1.000000
 -0.080240  0.000000  0.040120      1.000000
 -0.040120  0.000000  0.040120      1.000000
  0.000000  0.040120  0.040120      1.000000
  0.040120  0.040120  0.040120      1.000000
  0.080240  0.040120  0.040120      1.000000
  0.120360  0.040120  0.040120      1.000000
 -0.120360  0.040120  0.040120      1.000000
 -0.080240  0.040120  0.040120      1.000000
 -0.040120  0.040120  0.040120      1.000000
  0.000000  0.080240  0.040120      1.000000
  0.040120  0.080240  0.040120      1.000000
  0.080240  0.080240  0.040120      1.000000
  0.120360  0.080240  0.040120      1.000000
 -0.120360  0.080240  0.040120      1.000000
 -0.080240  0.080240  0.040120      1.000000
 -0.040120  0.080240  0.040120      1.000000
  0.000000  0.120360  0.040120      1.000000
  0.040120  0.120360  0.040120      1.000000
  0.080240  0.120360  0.040120      1.000000
  0.120360  0.120360  0.040120      1.000000
 -0.120360  0.120360  0.040120      1.000000
 -0.080240  0.120360  0.040120      1.000000
 -0.040120  0.120360  0.040120      1.000000
  0.000000 -0.120360  0.040120      1.000000
  0.040120 -0.120360  0.040120      1.000000
  0.080240 -0.120360  0.040120      1.000000
  0.120360 -0.120360  0.040120      1.000000
 -0.120360 -0.120360  0.040120      1.000000
 -0.080240 -0.120360  0.040120      1.000000
 -0.040120 -0.120360  0.040120      1.000000
  0.000000 -0.080240  0.040120      1.000000
  0.040120 -0.080240  0.040120      1.000000
  0.080240 -0.080240  0.040120      1.000000
  0.120360 -0.080240  0.040120      1.000000
 -0.120360 -0.080240  0.040120      1.000000
 -0.080240 -0.080240  0.040120      1.000000
 -0.040120 -0.080240  0.040120      1.000000
  0.000000 -0.040120  0.040120      1.000000
  0.040120 -0.040120  0.040120      1.000000
  0.080240 -0.040120  0.040120      1.000000
  0.120360 -0.040120  0.040120      1.000000
 -0.120360 -0.040120  0.040120      1.000000
 -0.080240 -0.040120  0.040120      1.000000
 -0.040120 -0.040120  0.040120      1.000000
  0.000000  0.000000  0.080240      1.000000
  0.040120  0.000000  0.080240      1.000000
  0.080240  0.000000  0.080240      1.000000
  0.120360  0.000000  0.080240      1.000000
 -0.120360  0.000000  0.080240      1.000000
 -0.080240  0.000000  0.080240      1.000000
 -0.040120  0.000000  0.080240      1.000000
  0.000000  0.040120  0.080240      1.000000
  0.040120  0.040120  0.080240      1.000000
  0.080240  0.040120  0.080240      1.000000
  0.120360  0.040120  0.080240      1.000000
 -0.120360  0.040120  0.080240      1.000000
 -0.080240  0.040120  0.080240      1.000000
 -0.040120  0.040120  0.080240      1.000000
  0.000000  0.080240  0.080240      1.000000
  0.040120  0.080240  0.080240      1.000000
  0.080240  0.080240  0.080240      1.000000
  0.120360  0.080240  0.080240      1.000000
 -0.120360  0.080240  0.080240      1.000000
 -0.080240  0.080240  0.080240      1.000000
 -0.040120  0.080240  0.080240      1.000000
  0.000000  0.120360  0.080240      1.000000
  0.040120  0.120360  0.080240      1.000000
  0.080240  0.120360  0.080240      1.000000
  0.120360  0.120360  0.080240      1.000000
 -0.120360  0.120360  0.080240      1.000000
 -0.080240  0.120360  0.080240      1.000000
 -0.040120  0.120360  0.080240      1.000000
  0.000000 -0.120360  0.080240      1.000000
  0.040120 -0.120360  0.080240      1.000000
  0.080240 -0.120360  0.080240      1.000000
  0.120360 -0.120360  0.080240      1.000000
 -0.120360 -0.120360  0.080240      1.000000
 -0.080240 -0.120360  0.080240      1.000000
 -0.040120 -0.120360  0.080240      1.000000
  0.000000 -0.080240  0.080240      1.000000
  0.040120 -0.080240  0.080240      1.000000
  0.080240 -0.080240  0.080240      1.000000
  0.120360 -0.080240  0.080240      1.000000
 -0.120360 -0.080240  0.080240      1.000000
 -0.080240 -0.080240  0.080240      1.000000
 -0.040120 -0.080240  0.080240      1.000000
  0.000000 -0.040120  0.080240      1.000000
  0.040120 -0.040120  0.080240      1.000000
  0.080240 -0.040120  0.080240      1.000000
  0.120360 -0.040120  0.080240      1.000000
 -0.120360 -0.040120  0.080240      1.000000
 -0.080240 -0.040120  0.080240      1.000000
 -0.040120 -0.040120  0.080240      1.000000
  0.000000  0.000000  0.120360      1.000000
  0.040120  0.000000  0.120360      1.000000
  0.080240  0.000000  0.120360      1.000000
  0.120360  0.000000  0.120360      1.000000
 -0.120360  0.000000  0.120360      1.000000
 -0.080240  0.000000  0.120360      1.000000
 -0.040120  0.000000  0.120360      1.000000
  0.000000  0.040120  0.120360      1.000000
  0.040120  0.040120  0.120360      1.000000
  0.080240  0.040120  0.120360      1.000000
  0.120360  0.040120  0.120360      1.000000
 -0.120360  0.040120  0.120360      1.000000
 -0.080240  0.040120  0.120360      1.000000
 -0.040120  0.040120  0.120360      1.000000
  0.000000  0.080240  0.120360      1.000000
  0.040120  0.080240  0.120360      1.000000
  0.080240  0.080240  0.120360      1.000000
  0.120360  0.080240  0.120360      1.000000
 -0.120360  0.080240  0.120360      1.000000
 -0.080240  0.080240  0.120360      1.000000
 -0.040120  0.080240  0.120360      1.000000
  0.000000  0.120360  0.120360      1.000000
  0.040120  0.120360  0.120360      1.000000
  0.080240  0.120360  0.120360      1.000000
  0.120360  0.120360  0.120360      1.000000
 -0.120360  0.120360  0.120360      1.000000
 -0.080240  0.120360  0.120360      1.000000
 -0.040120  0.120360  0.120360      1.000000
  0.000000 -0.120360  0.120360      1.000000
  0.040120 -0.120360  0.120360      1.000000
  0.080240 -0.120360  0.120360      1.000000
  0.120360 -0.120360  0.120360      1.000000
 -0.120360 -0.120360  0.120360      1.000000
 -0.080240 -0.120360  0.120360      1.000000
 -0.040120 -0.120360  0.120360      1.000000
  0.000000 -0.080240  0.120360      1.000000
  0.040120 -0.080240  0.120360      1.000000
  0.080240 -0.080240  0.120360      1.000000
  0.120360 -0.080240  0.120360      1.000000
 -0.120360 -0.080240  0.120360      1.000000
 -0.080240 -0.080240  0.120360      1.000000
 -0.040120 -0.080240  0.120360      1.000000
  0.000000 -0.040120  0.120360      1.000000
  0.040120 -0.040120  0.120360      1.000000
  0.080240 -0.040120  0.120360      1.000000
  0.120360 -0.040120  0.120360      1.000000
 -0.120360 -0.040120  0.120360      1.000000
 -0.080240 -0.040120  0.120360      1.000000
 -0.040120 -0.040120  0.120360      1.000000
  0.000000  0.000000 -0.120360      1.000000
  0.040120  0.000000 -0.120360      1.000000
  0.080240  0.000000 -0.120360      1.000000
  0.120360  0.000000 -0.120360      1.000000
 -0.120360  0.000000 -0.120360      1.000000
 -0.080240  0.000000 -0.120360      1.000000
 -0.040120  0.000000 -0.120360      1.000000
  0.000000  0.040120 -0.120360      1.000000
  0.040120  0.040120 -0.120360      1.000000
  0.080240  0.040120 -0.120360      1.000000
  0.120360  0.040120 -0.120360      1.000000
 -0.120360  0.040120 -0.120360      1.000000
 -0.080240  0.040120 -0.120360      1.000000
 -0.040120  0.040120 -0.120360      1.000000
  0.000000  0.080240 -0.120360      1.000000
  0.040120  0.080240 -0.120360      1.000000
  0.080240  0.080240 -0.120360      1.000000
  0.120360  0.080240 -0.120360      1.000000
 -0.120360  0.080240 -0.120360      1.000000
 -0.080240  0.080240 -0.120360      1.000000
 -0.040120  0.080240 -0.120360      1.000000
  0.000000  0.120360 -0.120360      1.000000
  0.040120  0.120360 -0.120360      1.000000
  0.080240  0.120360 -0.120360      1.000000
  0.120360  0.120360 -0.120360      1.000000
 -0.120360  0.120360 -0.120360      1.000000
 -0.080240  0.120360 -0.120360      1.000000
 -0.040120  0.120360 -0.120360      1.000000
  0.000000 -0.120360 -0.120360      1.000000
  0.040120 -0.120360 -0.120360      1.000000
  0.080240 -0.120360 -0.120360      1.000000
  0.120360 -0.120360 -0.120360      1.000000
 -0.120360 -0.120360 -0.120360      1.000000
 -0.080240 -0.120360 -0.120360      1.000000
 -0.040120 -0.120360 -0.120360      1.000000
  0.000000 -0.080240 -0.120360      1.000000
  0.040120 -0.080240 -0.120360      1.000000
  0.080240 -0.080240 -0.120360      1.000000
  0.120360 -0.080240 -0.120360      1.000000
 -0.120360 -0.080240 -0.120360      1.000000
 -0.080240 -0.080240 -0.120360      1.000000
 -0.040120 -0.080240 -0.120360      1.000000
  0.000000 -0.040120 -0.120360      1.000000
  0.040120 -0.040120 -0.120360      1.000000
  0.080240 -0.040120 -0.120360      1.000000
  0.120360 -0.040120 -0.120360      1.000000
 -0.120360 -0.040120 -0.120360      1.000000
 -0.080240 -0.040120 -0.120360      1.000000
 -0.040120 -0.040120 -0.120360      1.000000
  0.000000  0.000000 -0.080240      1.000000
  0.040120  0.000000 -0.080240      1.000000
  0.080240  0.000000 -0.080240      1.000000
  0.120360  0.000000 -0.080240      1.000000
 -0.120360  0.000000 -0.080240      1.000000
 -0.080240  0.000000 -0.080240      1.000000
 -0.040120  0.000000 -0.080240      1.000000
  0.000000  0.040120 -0.080240      1.000000
  0.040120  0.040120 -0.080240      1.000000
  0.080240  0.040120 -0.080240      1.000000
  0.120360  0.040120 -0.080240      1.000000
 -0.120360  0.040120 -0.080240      1.000000
 -0.080240  0.040120 -0.080240      1.000000
 -0.040120  0.040120 -0.080240      1.000000
  0.000000  0.080240 -0.080240      1.000000
  0.040120  0.080240 -0.080240      1.000000
  0.080240  0.080240 -0.080240      1.000000
  0.120360  0.080240 -0.080240      1.000000
 -0.120360  0.080240 -0.080240      1.000000
 -0.080240  0.080240 -0.080240      1.000000
 -0.040120  0.080240 -0.080240      1.000000
  0.000000  0.120360 -0.080240      1.000000
  0.040120  0.120360 -0.080240      1.000000
  0.080240  0.120360 -0.080240      1.000000
  0.120360  0.120360 -0.080240      1.000000
 -0.120360  0.120360 -0.080240      1.000000
 -0.080240  0.120360 -0.080240      1.000000
 -0.040120  0.120360 -0.080240      1.000000
  0.000000 -0.120360 -0.080240      1.000000
  0.040120 -0.120360 -0.080240      1.000000
  0.080240 -0.120360 -0.080240      1.000000
  0.120360 -0.120360 -0.080240      1.000000
 -0.120360 -0.120360 -0.080240      1.000000
 -0.080240 -0.120360 -0.080240      1.000000
 -0.040120 -0.120360 -0.080240      1.000000
  0.000000 -0.080240 -0.080240      1.000000
  0.040120 -0.080240 -0.080240      1.000000
  0.080240 -0.080240 -0.080240      1.000000
  0.120360 -0.080240 -0.080240      1.000000
 -0.120360 -0.080240 -0.080240      1.000000
 -0.080240 -0.080240 -0.080240      1.000000
 -0.040120 -0.080240 -0.080240      1.000000
  0.000000 -0.040120 -0.080240      1.000000
  0.040120 -0.040120 -0.080240      1.000000
  0.080240 -0.040120 -0.080240      1.000000
  0.120360 -0.040120 -0.080240      1.000000
 -0.120360 -0.040120 -0.080240      1.000000
 -0.080240 -0.040120 -0.080240      1.000000
 -0.040120 -0.040120 -0.080240      1.000000
  0.000000  0.000000 -0.040120      1.000000
  0.040120  0.000000 -0.040120      1.000000
  0.080240  0.000000 -0.040120      1.000000
  0.120360  0.000000 -0.040120      1.000000
 -0.120360  0.000000 -0.040120      1.000000
 -0.080240  0.000000 -0.040120      1.000000
 -0.040120  0.000000 -0.040120      1.000000
  0.000000  0.040120 -0.040120      1.000000
  0.040120  0.040120 -0.040120      1.000000
  0.080240  0.040120 -0.040120      1.000000
  0.120360  0.040120 -0.040120      1.000000
 -0.120360  0.040120 -0.040120      1.000000
 -0.080240  0.040120 -0.040120      1.000000
 -0.040120  0.040120 -0.040120      1.000000
  0.000000  0.080240 -0.040120      1.000000
  0.040120  0.080240 -0.040120      1.000000
  0.080240  0.080240 -0.040120      1.000000
  0.120360  0.080240 -0.040120      1.000000
 -0.120360  0.080240 -0.040120      1.000000
 -0.080240  0.080240 -0.040120      1.000000
 -0.040120  0.080240 -0.040120      1.000000
  0.000000  0.120360 -0.040120      1.000000
  0.040120  0.120360 -0.040120      1.000000
  0.080240  0.120360 -0.040120      1.000000
  0.120360  0.120360 -0.040120      1.000000
 -0.120360  0.120360 -0.040120      1.000000
 -0.080240  0.120360 -0.040120      1.000000
 -0.040120  0.120360 -0.040120      1.000000
  0.000000 -0.120360 -0.040120      1.000000
  0.040120 -0.120360 -0.040120      1.000000
  0.080240 -0.120360 -0.040120      1.000000
  0.120360 -0.120360 -0.040120      1.000000
 -0.120360 -0.120360 -0.040120      1.000000
 -0.080240 -0.120360 -0.040120      1.000000
 -0.040120 -0.120360 -0.040120      1.000000
  0.000000 -0.080240 -0.040120      1.000000
  0.040120 -0.080240 -0.040120      1.000000
  0.080240 -0.080240 -0.040120      1.000000
  0.120360 -0.080240 -0.040120      1.000000
 -0.120360 -0.080240 -0.040120      1.000000
 -0.080240 -0.080240 -0.040120      1.000000
 -0.040120 -0.080240 -0.040120      1.000000
  0.000000 -0.040120 -0.040120      1.000000
  0.040120 -0.040120 -0.040120      1.000000
  0.080240 -0.040120 -0.040120      1.000000
  0.120360 -0.040120 -0.040120      1.000000
 -0.120360 -0.040120 -0.040120      1.000000
 -0.080240 -0.040120 -0.040120      1.000000
 -0.040120 -0.040120 -0.040120      1.000000

 WARNING: full set of k-points will be restricted to regular points only.


 Subroutine IBZKPT_HF returns following result:
 ==============================================

 Found    343 k-points in 1st BZ
 the following    343 k-points will be used (e.g. in the exchange kernel)
 Following reciprocal coordinates:   # in IRBZ
  0.000000  0.000000  0.000000    0.00291545   1 t-inv F
  0.142857  0.000000  0.000000    0.00291545   2 t-inv F
  0.285714  0.000000  0.000000    0.00291545   3 t-inv F
  0.428571  0.000000  0.000000    0.00291545   4 t-inv F
 -0.428571  0.000000  0.000000    0.00291545   5 t-inv F
 -0.285714  0.000000  0.000000    0.00291545   6 t-inv F
 -0.142857  0.000000  0.000000    0.00291545   7 t-inv F
  0.000000  0.142857  0.000000    0.00291545   8 t-inv F
  0.142857  0.142857  0.000000    0.00291545   9 t-inv F
  0.285714  0.142857  0.000000    0.00291545  10 t-inv F
  0.428571  0.142857  0.000000    0.00291545  11 t-inv F
 -0.428571  0.142857  0.000000    0.00291545  12 t-inv F
 -0.285714  0.142857  0.000000    0.00291545  13 t-inv F
 -0.142857  0.142857  0.000000    0.00291545  14 t-inv F
  0.000000  0.285714  0.000000    0.00291545  15 t-inv F
  0.142857  0.285714  0.000000    0.00291545  16 t-inv F
  0.285714  0.285714  0.000000    0.00291545  17 t-inv F
  0.428571  0.285714  0.000000    0.00291545  18 t-inv F
 -0.428571  0.285714  0.000000    0.00291545  19 t-inv F
 -0.285714  0.285714  0.000000    0.00291545  20 t-inv F
 -0.142857  0.285714  0.000000    0.00291545  21 t-inv F
  0.000000  0.428571  0.000000    0.00291545  22 t-inv F
  0.142857  0.428571  0.000000    0.00291545  23 t-inv F
  0.285714  0.428571  0.000000    0.00291545  24 t-inv F
  0.428571  0.428571  0.000000    0.00291545  25 t-inv F
 -0.428571  0.428571  0.000000    0.00291545  26 t-inv F
 -0.285714  0.428571  0.000000    0.00291545  27 t-inv F
 -0.142857  0.428571  0.000000    0.00291545  28 t-inv F
  0.000000 -0.428571  0.000000    0.00291545  29 t-inv F
  0.142857 -0.428571  0.000000    0.00291545  30 t-inv F
  0.285714 -0.428571  0.000000    0.00291545  31 t-inv F
  0.428571 -0.428571  0.000000    0.00291545  32 t-inv F
 -0.428571 -0.428571  0.000000    0.00291545  33 t-inv F
 -0.285714 -0.428571  0.000000    0.00291545  34 t-inv F
 -0.142857 -0.428571  0.000000    0.00291545  35 t-inv F
  0.000000 -0.285714  0.000000    0.00291545  36 t-inv F
  0.142857 -0.285714  0.000000    0.00291545  37 t-inv F
  0.285714 -0.285714  0.000000    0.00291545  38 t-inv F
  0.428571 -0.285714  0.000000    0.00291545  39 t-inv F
 -0.428571 -0.285714  0.000000    0.00291545  40 t-inv F
 -0.285714 -0.285714  0.000000    0.00291545  41 t-inv F
 -0.142857 -0.285714  0.000000    0.00291545  42 t-inv F
  0.000000 -0.142857  0.000000    0.00291545  43 t-inv F
  0.142857 -0.142857  0.000000    0.00291545  44 t-inv F
  0.285714 -0.142857  0.000000    0.00291545  45 t-inv F
  0.428571 -0.142857  0.000000    0.00291545  46 t-inv F
 -0.428571 -0.142857  0.000000    0.00291545  47 t-inv F
 -0.285714 -0.142857  0.000000    0.00291545  48 t-inv F
 -0.142857 -0.142857  0.000000    0.00291545  49 t-inv F
  0.000000  0.000000  0.142857    0.00291545  50 t-inv F
  0.142857  0.000000  0.142857    0.00291545  51 t-inv F
  0.285714  0.000000  0.142857    0.00291545  52 t-inv F
  0.428571  0.000000  0.142857    0.00291545  53 t-inv F
 -0.428571  0.000000  0.142857    0.00291545  54 t-inv F
 -0.285714  0.000000  0.142857    0.00291545  55 t-inv F
 -0.142857  0.000000  0.142857    0.00291545  56 t-inv F
  0.000000  0.142857  0.142857    0.00291545  57 t-inv F
  0.142857  0.142857  0.142857    0.00291545  58 t-inv F
  0.285714  0.142857  0.142857    0.00291545  59 t-inv F
  0.428571  0.142857  0.142857    0.00291545  60 t-inv F
 -0.428571  0.142857  0.142857    0.00291545  61 t-inv F
 -0.285714  0.142857  0.142857    0.00291545  62 t-inv F
 -0.142857  0.142857  0.142857    0.00291545  63 t-inv F
  0.000000  0.285714  0.142857    0.00291545  64 t-inv F
  0.142857  0.285714  0.142857    0.00291545  65 t-inv F
  0.285714  0.285714  0.142857    0.00291545  66 t-inv F
  0.428571  0.285714  0.142857    0.00291545  67 t-inv F
 -0.428571  0.285714  0.142857    0.00291545  68 t-inv F
 -0.285714  0.285714  0.142857    0.00291545  69 t-inv F
 -0.142857  0.285714  0.142857    0.00291545  70 t-inv F
  0.000000  0.428571  0.142857    0.00291545  71 t-inv F
  0.142857  0.428571  0.142857    0.00291545  72 t-inv F
  0.285714  0.428571  0.142857    0.00291545  73 t-inv F
  0.428571  0.428571  0.142857    0.00291545  74 t-inv F
 -0.428571  0.428571  0.142857    0.00291545  75 t-inv F
 -0.285714  0.428571  0.142857    0.00291545  76 t-inv F
 -0.142857  0.428571  0.142857    0.00291545  77 t-inv F
  0.000000 -0.428571  0.142857    0.00291545  78 t-inv F
  0.142857 -0.428571  0.142857    0.00291545  79 t-inv F
  0.285714 -0.428571  0.142857    0.00291545  80 t-inv F
  0.428571 -0.428571  0.142857    0.00291545  81 t-inv F
 -0.428571 -0.428571  0.142857    0.00291545  82 t-inv F
 -0.285714 -0.428571  0.142857    0.00291545  83 t-inv F
 -0.142857 -0.428571  0.142857    0.00291545  84 t-inv F
  0.000000 -0.285714  0.142857    0.00291545  85 t-inv F
  0.142857 -0.285714  0.142857    0.00291545  86 t-inv F
  0.285714 -0.285714  0.142857    0.00291545  87 t-inv F
  0.428571 -0.285714  0.142857    0.00291545  88 t-inv F
 -0.428571 -0.285714  0.142857    0.00291545  89 t-inv F
 -0.285714 -0.285714  0.142857    0.00291545  90 t-inv F
 -0.142857 -0.285714  0.142857    0.00291545  91 t-inv F
  0.000000 -0.142857  0.142857    0.00291545  92 t-inv F
  0.142857 -0.142857  0.142857    0.00291545  93 t-inv F
  0.285714 -0.142857  0.142857    0.00291545  94 t-inv F
  0.428571 -0.142857  0.142857    0.00291545  95 t-inv F
 -0.428571 -0.142857  0.142857    0.00291545  96 t-inv F
 -0.285714 -0.142857  0.142857    0.00291545  97 t-inv F
 -0.142857 -0.142857  0.142857    0.00291545  98 t-inv F
  0.000000  0.000000  0.285714    0.00291545  99 t-inv F
  0.142857  0.000000  0.285714    0.00291545 100 t-inv F
  0.285714  0.000000  0.285714    0.00291545 101 t-inv F
  0.428571  0.000000  0.285714    0.00291545 102 t-inv F
 -0.428571  0.000000  0.285714    0.00291545 103 t-inv F
 -0.285714  0.000000  0.285714    0.00291545 104 t-inv F
 -0.142857  0.000000  0.285714    0.00291545 105 t-inv F
  0.000000  0.142857  0.285714    0.00291545 106 t-inv F
  0.142857  0.142857  0.285714    0.00291545 107 t-inv F
  0.285714  0.142857  0.285714    0.00291545 108 t-inv F
  0.428571  0.142857  0.285714    0.00291545 109 t-inv F
 -0.428571  0.142857  0.285714    0.00291545 110 t-inv F
 -0.285714  0.142857  0.285714    0.00291545 111 t-inv F
 -0.142857  0.142857  0.285714    0.00291545 112 t-inv F
  0.000000  0.285714  0.285714    0.00291545 113 t-inv F
  0.142857  0.285714  0.285714    0.00291545 114 t-inv F
  0.285714  0.285714  0.285714    0.00291545 115 t-inv F
  0.428571  0.285714  0.285714    0.00291545 116 t-inv F
 -0.428571  0.285714  0.285714    0.00291545 117 t-inv F
 -0.285714  0.285714  0.285714    0.00291545 118 t-inv F
 -0.142857  0.285714  0.285714    0.00291545 119 t-inv F
  0.000000  0.428571  0.285714    0.00291545 120 t-inv F
  0.142857  0.428571  0.285714    0.00291545 121 t-inv F
  0.285714  0.428571  0.285714    0.00291545 122 t-inv F
  0.428571  0.428571  0.285714    0.00291545 123 t-inv F
 -0.428571  0.428571  0.285714    0.00291545 124 t-inv F
 -0.285714  0.428571  0.285714    0.00291545 125 t-inv F
 -0.142857  0.428571  0.285714    0.00291545 126 t-inv F
  0.000000 -0.428571  0.285714    0.00291545 127 t-inv F
  0.142857 -0.428571  0.285714    0.00291545 128 t-inv F
  0.285714 -0.428571  0.285714    0.00291545 129 t-inv F
  0.428571 -0.428571  0.285714    0.00291545 130 t-inv F
 -0.428571 -0.428571  0.285714    0.00291545 131 t-inv F
 -0.285714 -0.428571  0.285714    0.00291545 132 t-inv F
 -0.142857 -0.428571  0.285714    0.00291545 133 t-inv F
  0.000000 -0.285714  0.285714    0.00291545 134 t-inv F
  0.142857 -0.285714  0.285714    0.00291545 135 t-inv F
  0.285714 -0.285714  0.285714    0.00291545 136 t-inv F
  0.428571 -0.285714  0.285714    0.00291545 137 t-inv F
 -0.428571 -0.285714  0.285714    0.00291545 138 t-inv F
 -0.285714 -0.285714  0.285714    0.00291545 139 t-inv F
 -0.142857 -0.285714  0.285714    0.00291545 140 t-inv F
  0.000000 -0.142857  0.285714    0.00291545 141 t-inv F
  0.142857 -0.142857  0.285714    0.00291545 142 t-inv F
  0.285714 -0.142857  0.285714    0.00291545 143 t-inv F
  0.428571 -0.142857  0.285714    0.00291545 144 t-inv F
 -0.428571 -0.142857  0.285714    0.00291545 145 t-inv F
 -0.285714 -0.142857  0.285714    0.00291545 146 t-inv F
 -0.142857 -0.142857  0.285714    0.00291545 147 t-inv F
  0.000000  0.000000  0.428571    0.00291545 148 t-inv F
  0.142857  0.000000  0.428571    0.00291545 149 t-inv F
  0.285714  0.000000  0.428571    0.00291545 150 t-inv F
  0.428571  0.000000  0.428571    0.00291545 151 t-inv F
 -0.428571  0.000000  0.428571    0.00291545 152 t-inv F
 -0.285714  0.000000  0.428571    0.00291545 153 t-inv F
 -0.142857  0.000000  0.428571    0.00291545 154 t-inv F
  0.000000  0.142857  0.428571    0.00291545 155 t-inv F
  0.142857  0.142857  0.428571    0.00291545 156 t-inv F
  0.285714  0.142857  0.428571    0.00291545 157 t-inv F
  0.428571  0.142857  0.428571    0.00291545 158 t-inv F
 -0.428571  0.142857  0.428571    0.00291545 159 t-inv F
 -0.285714  0.142857  0.428571    0.00291545 160 t-inv F
 -0.142857  0.142857  0.428571    0.00291545 161 t-inv F
  0.000000  0.285714  0.428571    0.00291545 162 t-inv F
  0.142857  0.285714  0.428571    0.00291545 163 t-inv F
  0.285714  0.285714  0.428571    0.00291545 164 t-inv F
  0.428571  0.285714  0.428571    0.00291545 165 t-inv F
 -0.428571  0.285714  0.428571    0.00291545 166 t-inv F
 -0.285714  0.285714  0.428571    0.00291545 167 t-inv F
 -0.142857  0.285714  0.428571    0.00291545 168 t-inv F
  0.000000  0.428571  0.428571    0.00291545 169 t-inv F
  0.142857  0.428571  0.428571    0.00291545 170 t-inv F
  0.285714  0.428571  0.428571    0.00291545 171 t-inv F
  0.428571  0.428571  0.428571    0.00291545 172 t-inv F
 -0.428571  0.428571  0.428571    0.00291545 173 t-inv F
 -0.285714  0.428571  0.428571    0.00291545 174 t-inv F
 -0.142857  0.428571  0.428571    0.00291545 175 t-inv F
  0.000000 -0.428571  0.428571    0.00291545 176 t-inv F
  0.142857 -0.428571  0.428571    0.00291545 177 t-inv F
  0.285714 -0.428571  0.428571    0.00291545 178 t-inv F
  0.428571 -0.428571  0.428571    0.00291545 179 t-inv F
 -0.428571 -0.428571  0.428571    0.00291545 180 t-inv F
 -0.285714 -0.428571  0.428571    0.00291545 181 t-inv F
 -0.142857 -0.428571  0.428571    0.00291545 182 t-inv F
  0.000000 -0.285714  0.428571    0.00291545 183 t-inv F
  0.142857 -0.285714  0.428571    0.00291545 184 t-inv F
  0.285714 -0.285714  0.428571    0.00291545 185 t-inv F
  0.428571 -0.285714  0.428571    0.00291545 186 t-inv F
 -0.428571 -0.285714  0.428571    0.00291545 187 t-inv F
 -0.285714 -0.285714  0.428571    0.00291545 188 t-inv F
 -0.142857 -0.285714  0.428571    0.00291545 189 t-inv F
  0.000000 -0.142857  0.428571    0.00291545 190 t-inv F
  0.142857 -0.142857  0.428571    0.00291545 191 t-inv F
  0.285714 -0.142857  0.428571    0.00291545 192 t-inv F
  0.428571 -0.142857  0.428571    0.00291545 193 t-inv F
 -0.428571 -0.142857  0.428571    0.00291545 194 t-inv F
 -0.285714 -0.142857  0.428571    0.00291545 195 t-inv F
 -0.142857 -0.142857  0.428571    0.00291545 196 t-inv F
  0.000000  0.000000 -0.428571    0.00291545 197 t-inv F
  0.142857  0.000000 -0.428571    0.00291545 198 t-inv F
  0.285714  0.000000 -0.428571    0.00291545 199 t-inv F
  0.428571  0.000000 -0.428571    0.00291545 200 t-inv F
 -0.428571  0.000000 -0.428571    0.00291545 201 t-inv F
 -0.285714  0.000000 -0.428571    0.00291545 202 t-inv F
 -0.142857  0.000000 -0.428571    0.00291545 203 t-inv F
  0.000000  0.142857 -0.428571    0.00291545 204 t-inv F
  0.142857  0.142857 -0.428571    0.00291545 205 t-inv F
  0.285714  0.142857 -0.428571    0.00291545 206 t-inv F
  0.428571  0.142857 -0.428571    0.00291545 207 t-inv F
 -0.428571  0.142857 -0.428571    0.00291545 208 t-inv F
 -0.285714  0.142857 -0.428571    0.00291545 209 t-inv F
 -0.142857  0.142857 -0.428571    0.00291545 210 t-inv F
  0.000000  0.285714 -0.428571    0.00291545 211 t-inv F
  0.142857  0.285714 -0.428571    0.00291545 212 t-inv F
  0.285714  0.285714 -0.428571    0.00291545 213 t-inv F
  0.428571  0.285714 -0.428571    0.00291545 214 t-inv F
 -0.428571  0.285714 -0.428571    0.00291545 215 t-inv F
 -0.285714  0.285714 -0.428571    0.00291545 216 t-inv F
 -0.142857  0.285714 -0.428571    0.00291545 217 t-inv F
  0.000000  0.428571 -0.428571    0.00291545 218 t-inv F
  0.142857  0.428571 -0.428571    0.00291545 219 t-inv F
  0.285714  0.428571 -0.428571    0.00291545 220 t-inv F
  0.428571  0.428571 -0.428571    0.00291545 221 t-inv F
 -0.428571  0.428571 -0.428571    0.00291545 222 t-inv F
 -0.285714  0.428571 -0.428571    0.00291545 223 t-inv F
 -0.142857  0.428571 -0.428571    0.00291545 224 t-inv F
  0.000000 -0.428571 -0.428571    0.00291545 225 t-inv F
  0.142857 -0.428571 -0.428571    0.00291545 226 t-inv F
  0.285714 -0.428571 -0.428571    0.00291545 227 t-inv F
  0.428571 -0.428571 -0.428571    0.00291545 228 t-inv F
 -0.428571 -0.428571 -0.428571    0.00291545 229 t-inv F
 -0.285714 -0.428571 -0.428571    0.00291545 230 t-inv F
 -0.142857 -0.428571 -0.428571    0.00291545 231 t-inv F
  0.000000 -0.285714 -0.428571    0.00291545 232 t-inv F
  0.142857 -0.285714 -0.428571    0.00291545 233 t-inv F
  0.285714 -0.285714 -0.428571    0.00291545 234 t-inv F
  0.428571 -0.285714 -0.428571    0.00291545 235 t-inv F
 -0.428571 -0.285714 -0.428571    0.00291545 236 t-inv F
 -0.285714 -0.285714 -0.428571    0.00291545 237 t-inv F
 -0.142857 -0.285714 -0.428571    0.00291545 238 t-inv F
  0.000000 -0.142857 -0.428571    0.00291545 239 t-inv F
  0.142857 -0.142857 -0.428571    0.00291545 240 t-inv F
  0.285714 -0.142857 -0.428571    0.00291545 241 t-inv F
  0.428571 -0.142857 -0.428571    0.00291545 242 t-inv F
 -0.428571 -0.142857 -0.428571    0.00291545 243 t-inv F
 -0.285714 -0.142857 -0.428571    0.00291545 244 t-inv F
 -0.142857 -0.142857 -0.428571    0.00291545 245 t-inv F
  0.000000  0.000000 -0.285714    0.00291545 246 t-inv F
  0.142857  0.000000 -0.285714    0.00291545 247 t-inv F
  0.285714  0.000000 -0.285714    0.00291545 248 t-inv F
  0.428571  0.000000 -0.285714    0.00291545 249 t-inv F
 -0.428571  0.000000 -0.285714    0.00291545 250 t-inv F
 -0.285714  0.000000 -0.285714    0.00291545 251 t-inv F
 -0.142857  0.000000 -0.285714    0.00291545 252 t-inv F
  0.000000  0.142857 -0.285714    0.00291545 253 t-inv F
  0.142857  0.142857 -0.285714    0.00291545 254 t-inv F
  0.285714  0.142857 -0.285714    0.00291545 255 t-inv F
  0.428571  0.142857 -0.285714    0.00291545 256 t-inv F
 -0.428571  0.142857 -0.285714    0.00291545 257 t-inv F
 -0.285714  0.142857 -0.285714    0.00291545 258 t-inv F
 -0.142857  0.142857 -0.285714    0.00291545 259 t-inv F
  0.000000  0.285714 -0.285714    0.00291545 260 t-inv F
  0.142857  0.285714 -0.285714    0.00291545 261 t-inv F
  0.285714  0.285714 -0.285714    0.00291545 262 t-inv F
  0.428571  0.285714 -0.285714    0.00291545 263 t-inv F
 -0.428571  0.285714 -0.285714    0.00291545 264 t-inv F
 -0.285714  0.285714 -0.285714    0.00291545 265 t-inv F
 -0.142857  0.285714 -0.285714    0.00291545 266 t-inv F
  0.000000  0.428571 -0.285714    0.00291545 267 t-inv F
  0.142857  0.428571 -0.285714    0.00291545 268 t-inv F
  0.285714  0.428571 -0.285714    0.00291545 269 t-inv F
  0.428571  0.428571 -0.285714    0.00291545 270 t-inv F
 -0.428571  0.428571 -0.285714    0.00291545 271 t-inv F
 -0.285714  0.428571 -0.285714    0.00291545 272 t-inv F
 -0.142857  0.428571 -0.285714    0.00291545 273 t-inv F
  0.000000 -0.428571 -0.285714    0.00291545 274 t-inv F
  0.142857 -0.428571 -0.285714    0.00291545 275 t-inv F
  0.285714 -0.428571 -0.285714    0.00291545 276 t-inv F
  0.428571 -0.428571 -0.285714    0.00291545 277 t-inv F
 -0.428571 -0.428571 -0.285714    0.00291545 278 t-inv F
 -0.285714 -0.428571 -0.285714    0.00291545 279 t-inv F
 -0.142857 -0.428571 -0.285714    0.00291545 280 t-inv F
  0.000000 -0.285714 -0.285714    0.00291545 281 t-inv F
  0.142857 -0.285714 -0.285714    0.00291545 282 t-inv F
  0.285714 -0.285714 -0.285714    0.00291545 283 t-inv F
  0.428571 -0.285714 -0.285714    0.00291545 284 t-inv F
 -0.428571 -0.285714 -0.285714    0.00291545 285 t-inv F
 -0.285714 -0.285714 -0.285714    0.00291545 286 t-inv F
 -0.142857 -0.285714 -0.285714    0.00291545 287 t-inv F
  0.000000 -0.142857 -0.285714    0.00291545 288 t-inv F
  0.142857 -0.142857 -0.285714    0.00291545 289 t-inv F
  0.285714 -0.142857 -0.285714    0.00291545 290 t-inv F
  0.428571 -0.142857 -0.285714    0.00291545 291 t-inv F
 -0.428571 -0.142857 -0.285714    0.00291545 292 t-inv F
 -0.285714 -0.142857 -0.285714    0.00291545 293 t-inv F
 -0.142857 -0.142857 -0.285714    0.00291545 294 t-inv F
  0.000000  0.000000 -0.142857    0.00291545 295 t-inv F
  0.142857  0.000000 -0.142857    0.00291545 296 t-inv F
  0.285714  0.000000 -0.142857    0.00291545 297 t-inv F
  0.428571  0.000000 -0.142857    0.00291545 298 t-inv F
 -0.428571  0.000000 -0.142857    0.00291545 299 t-inv F
 -0.285714  0.000000 -0.142857    0.00291545 300 t-inv F
 -0.142857  0.000000 -0.142857    0.00291545 301 t-inv F
  0.000000  0.142857 -0.142857    0.00291545 302 t-inv F
  0.142857  0.142857 -0.142857    0.00291545 303 t-inv F
  0.285714  0.142857 -0.142857    0.00291545 304 t-inv F
  0.428571  0.142857 -0.142857    0.00291545 305 t-inv F
 -0.428571  0.142857 -0.142857    0.00291545 306 t-inv F
 -0.285714  0.142857 -0.142857    0.00291545 307 t-inv F
 -0.142857  0.142857 -0.142857    0.00291545 308 t-inv F
  0.000000  0.285714 -0.142857    0.00291545 309 t-inv F
  0.142857  0.285714 -0.142857    0.00291545 310 t-inv F
  0.285714  0.285714 -0.142857    0.00291545 311 t-inv F
  0.428571  0.285714 -0.142857    0.00291545 312 t-inv F
 -0.428571  0.285714 -0.142857    0.00291545 313 t-inv F
 -0.285714  0.285714 -0.142857    0.00291545 314 t-inv F
 -0.142857  0.285714 -0.142857    0.00291545 315 t-inv F
  0.000000  0.428571 -0.142857    0.00291545 316 t-inv F
  0.142857  0.428571 -0.142857    0.00291545 317 t-inv F
  0.285714  0.428571 -0.142857    0.00291545 318 t-inv F
  0.428571  0.428571 -0.142857    0.00291545 319 t-inv F
 -0.428571  0.428571 -0.142857    0.00291545 320 t-inv F
 -0.285714  0.428571 -0.142857    0.00291545 321 t-inv F
 -0.142857  0.428571 -0.142857    0.00291545 322 t-inv F
  0.000000 -0.428571 -0.142857    0.00291545 323 t-inv F
  0.142857 -0.428571 -0.142857    0.00291545 324 t-inv F
  0.285714 -0.428571 -0.142857    0.00291545 325 t-inv F
  0.428571 -0.428571 -0.142857    0.00291545 326 t-inv F
 -0.428571 -0.428571 -0.142857    0.00291545 327 t-inv F
 -0.285714 -0.428571 -0.142857    0.00291545 328 t-inv F
 -0.142857 -0.428571 -0.142857    0.00291545 329 t-inv F
  0.000000 -0.285714 -0.142857    0.00291545 330 t-inv F
  0.142857 -0.285714 -0.142857    0.00291545 331 t-inv F
  0.285714 -0.285714 -0.142857    0.00291545 332 t-inv F
  0.428571 -0.285714 -0.142857    0.00291545 333 t-inv F
 -0.428571 -0.285714 -0.142857    0.00291545 334 t-inv F
 -0.285714 -0.285714 -0.142857    0.00291545 335 t-inv F
 -0.142857 -0.285714 -0.142857    0.00291545 336 t-inv F
  0.000000 -0.142857 -0.142857    0.00291545 337 t-inv F
  0.142857 -0.142857 -0.142857    0.00291545 338 t-inv F
  0.285714 -0.142857 -0.142857    0.00291545 339 t-inv F
  0.428571 -0.142857 -0.142857    0.00291545 340 t-inv F
 -0.428571 -0.142857 -0.142857    0.00291545 341 t-inv F
 -0.285714 -0.142857 -0.142857    0.00291545 342 t-inv F
 -0.142857 -0.142857 -0.142857    0.00291545 343 t-inv F


--------------------------------------------------------------------------------------------------------




 Dimension of arrays:
   k-points           NKPTS =    343   k-points in BZ     NKDIM =    343   number of bands    NBANDS=     20
   number of dos      NEDOS =    301   number of ions     NIONS =      7
   non local maximal  LDIM  =      4   non local SUM 2l+1 LMDIM =      8
   total plane-waves  NPLWV =   8000
   max r-space proj   IRMAX =      1   max aug-charges    IRDMAX=   2380
   dimension x,y,z NGX =    20 NGY =   20 NGZ =   20
   dimension x,y,z NGXF=    40 NGYF=   40 NGZF=   40
   support grid    NGXF=    40 NGYF=   40 NGZF=   40
   ions per type =               6   1
   NGX,Y,Z   is equivalent  to a cutoff of   9.34,  9.34,  9.34 a.u.
   NGXF,Y,Z  is equivalent  to a cutoff of  18.68, 18.68, 18.68 a.u.

 SYSTEM =  superdoubleZX
 POSCAR =  C8

 Startparameter for this run:
   NWRITE =      2    write-flag & timer
   PREC   = normal    normal or accurate (medium, high low for compatibility)
   ISTART =      1    job   : 0-new  1-cont  2-samecut
   ICHARG =      0    charge: 1-file 2-atom 10-const
   ISPIN  =      2    spin polarized calculation?
   LNONCOLLINEAR =      F non collinear calculations
   LSORBIT =      F    spin-orbit coupling
   INIWAV =      1    electr: 0-lowe 1-rand  2-diag
   LASPH  =      F    aspherical Exc in radial PAW
 Electronic Relaxation 1
   ENCUT  =  520.0 eV  38.22 Ry    6.18 a.u.   6.62  6.62  6.62*2*pi/ulx,y,z
   ENINI  =  520.0     initial cutoff
   ENAUG  =  644.9 eV  augmentation charge cutoff
   NELM   =     40;   NELMIN=  3; NELMDL=  0     # of ELM steps
   EDIFF  = 0.1E-05   stopping-criterion for ELM
   LREAL  =      F    real-space projection
   NLSPLINE    = F    spline interpolate recip. space projectors
   LCOMPAT=      F    compatible to vasp.4.4
   GGA_COMPAT  = T    GGA compatible to vasp.4.4-vasp.4.6
   LMAXPAW     = -100 max onsite density
   LMAXMIX     =    2 max onsite mixed and CHGCAR
   VOSKOWN=      0    Vosko Wilk Nusair interpolation
   ROPT   =    0.00000   0.00000
 Ionic relaxation
   EDIFFG = -.1E-01   stopping-criterion for IOM
   NSW    =      0    number of steps for IOM
   NBLOCK =      1;   KBLOCK =      1    inner block; outer block
   IBRION =     -1    ionic relax: 0-MD 1-quasi-New 2-CG
   NFREE  =      0    steps in history (QN), initial steepest desc. (CG)
   ISIF   =      2    stress and relaxation
   IWAVPR =     10    prediction:  0-non 1-charg 2-wave 3-comb
   ISYM   =     -1    0-nonsym 1-usesym 2-fastsym
   LCORR  =      T    Harris-Foulkes like correction to forces

   POTIM  = 0.3000    time-step for ionic-motion
   TEIN   =    0.0    initial temperature
   TEBEG  =    0.0;   TEEND  =   0.0 temperature during run
   SMASS  =  -3.00    Nose mass-parameter (am)
   estimated Nose-frequenzy (Omega)   =  0.10E-29 period in steps = 0.21E+47 mass=  -0.290E-27a.u.
   SCALEE = 1.0000    scale energy and forces
   NPACO  =    256;   APACO  = 10.0  distance and # of slots for P.C.
   PSTRESS=    0.0 pullay stress

  Mass of Ions in am
   POMASS =  12.01 14.00
  Ionic Valenz
   ZVAL   =   4.00  5.00
  Atomic Wigner-Seitz radii
   RWIGS  =  -1.00 -1.00
  virtual crystal weights
   VCA    =   1.00  1.00
   NELECT =      30.0000    total number of electrons
   NUPDOWN=       2.0000    fix difference up-down

 DOS related values:
   EMIN   =  10.00;   EMAX   =-10.00  energy-range for DOS
   EFERMI =   0.00;   METHOD = LEGACY
   ISMEAR =     0;   SIGMA  =   0.01  broadening in eV -4-tet -1-fermi 0-gaus

 Electronic relaxation 2 (details)
   IALGO  =     38    algorithm
   LDIAG  =      T    sub-space diagonalisation (order eigenvalues)
   LSUBROT=      F    optimize rotation matrix (better conditioning)
   TURBO    =      0    0=normal 1=particle mesh
   IRESTART =      0    0=no restart 2=restart with 2 vectors
   NREBOOT  =      0    no. of reboots
   NMIN     =      0    reboot dimension
   EREF     =   0.00    reference energy to select bands
   IMIX   =      4    mixing-type and parameters
     AMIX     =   0.20;   BMIX     =  1.00
     AMIX_MAG =   0.80;   BMIX_MAG =  1.00
     AMIN     =   0.10
     WC   =   100.;   INIMIX=   1;  MIXPRE=   1;  MAXMIX= -45

 Intra band minimization:
   WEIMIN = 0.0000     energy-eigenvalue tresh-hold
   EBREAK =  0.12E-07  absolute break condition
   DEPER  =   0.30     relative break condition

   TIME   =   0.40     timestep for ELM

  volume/ion in A,a.u.               =       6.45        43.52
  Fermi-wavevector in a.u.,A,eV,Ry     =   1.428590  2.699644 27.767727  2.040870
  Thomas-Fermi vector in A             =   2.548636

 Write flags
   LWAVE        =      T    write WAVECAR
   LDOWNSAMPLE  =      F    k-point downsampling of WAVECAR
   LCHARG       =      T    write CHGCAR
   LVTOT        =      F    write LOCPOT, total local potential
   LVHAR        =      T    write LOCPOT, Hartree potential only
   WRT_POTENTIAL=  hartree ionic  ! write potential to hdf5 file
   LELF         =      F    write electronic localiz. function (ELF)
   LORBIT       =     10    0 simple, 1 ext, 2 COOP (PROOUT), +10 PAW based schemes


 Dipole corrections
   LMONO      =      F    monopole corrections only (constant potential shift)
   LDIPOL     =      F    correct potential (dipole corrections)
   IDIPOL     =      0    1-x, 2-y, 3-z, 4-all directions
   EPSILON    =  1.0000000 bulk dielectric constant
   LVACPOTAV  =      F  vacuum potentials using an averaging scheme for the charge density
   VACPOTFLAT =  0.1000000 required flatness to determine vacuum potential
 Exchange correlation treatment:
   GGA     = PS    functional components
   XC_C    = 1    coefficients multiplying the functional components
   LIBXC   =     F    Libxc
   VOSKOWN =     0    Vosko Wilk Nusair interpolation
   EXXOEP  =     0    0=HF, 1=EXX-LHF (local Hartree Fock) 2=EXX OEP
   LHFCALC =     T    Hartree Fock is set to
   LSYMGRAD=     F    symmetrize gradient (conserves proper symmetry)
   PRECFOCK=normal    Normal, Fast or Accurate (Low or Medium for compatibility)
   LRHFCALC=     F    long range Hartree Fock
   LRSCOR  =     F    long range correlation only (use DFT for short range part)
   LTHOMAS =     F    Thomas Fermi screening in HF
   LMODELHF=     F    short range full HF, long range fraction AEXX
   FOCKCORR=     1    mode to apply convergence corrections
   LFOCKACE=     T    use Adeptively-Compressed-Exchange operator
   ENCUT4O =  -1.0   cutoff for four orbital integrals eV
   LMAXFOCK=     4    L truncation for augmentation on plane wave grid
   LMAXFOCKAE=  -1    L truncation for all-electron charge restoration on plane wave grid
   NMAXFOCKAE=   1    number of basis functions for all-electron charge restoration
   LFOCKAEDFT=     F  apply the AE augmentation even for DFT
   NKREDX  =     1    reduce k-point grid by
   NKREDY  =     1    reduce k-point grid by
   NKREDZ  =     1    reduce k-point grid by
   SHIFTRED=     F    shift reduced grid of Gamma
   HFKIDENT=     F    identical grid for each k-point
   ODDONLY =     F    use only odd q-grid points
   EVENONLY=     F    use only even q-grid points
   HFALPHA =   -1.0000 decay constant for conv. correction
   MCALPHA =    0.0000 extent of test-charge in conv. correction in multipole expansion
   AEXX    =    0.0000 exact exchange contribution
   HFSCREEN=    0.0000 screening length (either q_TF or 0.3 A-1)
   HFSCREENC=   0.0000 screening length for correlation (either q_TF or 0.3 A-1)
   HFRCUT  =    0.0000 spherical cutoff for potential kernel
   ALDAX   =    1.0000 LDA exchange part
   AGGAX   =    1.0000 GGA exchange part
   AMGGAX  =    1.0000 meta-GGA exchange part
   ALDAC   =    1.0000 LDA correlation
   AGGAC   =    1.0000 GGA correlation
   AMGGAC  =    1.0000 meta-GGA correlation
   ENCUTFOCK=  -1.0 apply spherical cutoff to Coloumb kernel
   NBANDSGWLOW=     1    first orbital included in HF term
   NBLOCK_FOCK=    64    blocking factor in FOCK_ACC

 Parameters of functionals:
   PS:
     No parameter

 Van der Waals corrections
   IVDW    =     0    specifies the selected vdW correction

 Linear response parameters
   LEPSILON=     F    determine dielectric tensor
   LRPA    =     F    only Hartree local field effects (RPA)
   LNABLA  =     F    use nabla operator in PAW spheres
   LVEL    =     F    velocity operator in full k-point grid
   CSHIFT  =0.1000    complex shift for real part using Kramers Kronig
   OMEGAMAX=  -1.0    maximum frequency
   DEG_THRESHOLD= 0.2000000E-02 threshold for treating states as degenerate
   RTIME   =   -0.100 relaxation time in fs
  (WPLASMAI=    0.000 imaginary part of plasma frequency in eV, 0.658/RTIME)
   DFIELD  = 0.0000000 0.0000000 0.0000000 field for delta impulse in time

  Optional k-point grid parameters
   LKPOINTS_OPT  =     F    use optional k-point grid
   KPOINTS_OPT_MODE=     1    mode for optional k-point grid

 Orbital magnetization related:
   ORBITALMAG=     F  switch on orbital magnetization
   LCHIMAG   =     F  perturbation theory with respect to B field
   DQ        =  0.001000  dq finite difference perturbation B field
   LLRAUG    =     F  two centre corrections for induced B field
   LBONE     =     F  B-component reconstruction in AE one-centre
   LVGVCALC  =     T  calculate vGv susceptibility
   LVGVAPPL  =     F  apply vGv susceptibility instead of pGv for G=0

 Random number generation:
   RANDOM_GENERATOR = DEFAULT
   PCG_SEED         = not used


--------------------------------------------------------------------------------------------------------


 Static calculation
 charge density and potential will be updated during run
 spin polarized calculation
 Variant of blocked Davidson
 Davidson routine will perform the subspace rotation
 perform sub-space diagonalisation
    after iterative eigenvector-optimisation
 modified Broyden-mixing scheme, WC =      100.0
 initial mixing is a Kerker type mixing with AMIX =  0.2000 and BMIX =      1.0000
 Hartree-type preconditioning will be used
 using additional bands            5
 reciprocal scheme for non local part
 use partial core corrections
 calculate Harris-corrections to forces
   (improved forces if not selfconsistent)
 use gradient corrections
 use of overlap-Matrix (Vanderbilt PP)
 Gauss-broadening in eV      SIGMA  =   0.01


--------------------------------------------------------------------------------------------------------


  energy-cutoff  :      520.00
  volume of cell :       45.15
      direct lattice vectors                 reciprocal lattice vectors
     3.560745001  0.000000000  0.000000000     0.280840105  0.000000000  0.000000000
     0.000000000  3.560745001  0.000000000     0.000000000  0.280840105  0.000000000
     0.000000000  0.000000000  3.560745001     0.000000000  0.000000000  0.280840105

  length of vectors
     3.560745001  3.560745001  3.560745001     0.280840105  0.280840105  0.280840105



 old parameters found on file WAVECAR:
  energy-cutoff  :      520.00
  volume of cell :       45.15
      direct lattice vectors                 reciprocal lattice vectors
     3.560745001  0.000000000  0.000000000     0.280840105  0.000000000  0.000000000
     0.000000000  3.560745001  0.000000000     0.000000000  0.280840105  0.000000000
     0.000000000  0.000000000  3.560745001     0.000000000  0.000000000  0.280840105

  length of vectors


 k-points in units of 2pi/SCALE and weight: K-Spacing Value to Generate K-Mesh: 0.04
   0.00000000  0.00000000  0.00000000       0.003
   0.04012002  0.00000000  0.00000000       0.003
   0.08024003  0.00000000  0.00000000       0.003
   0.12036005  0.00000000  0.00000000       0.003
  -0.12036005  0.00000000  0.00000000       0.003
  -0.08024003  0.00000000  0.00000000       0.003
  -0.04012002  0.00000000  0.00000000       0.003
   0.00000000  0.04012002  0.00000000       0.003
   0.04012002  0.04012002  0.00000000       0.003
   0.08024003  0.04012002  0.00000000       0.003
   0.12036005  0.04012002  0.00000000       0.003
  -0.12036005  0.04012002  0.00000000       0.003
  -0.08024003  0.04012002  0.00000000       0.003
  -0.04012002  0.04012002  0.00000000       0.003
   0.00000000  0.08024003  0.00000000       0.003
   0.04012002  0.08024003  0.00000000       0.003
   0.08024003  0.08024003  0.00000000       0.003
   0.12036005  0.08024003  0.00000000       0.003
  -0.12036005  0.08024003  0.00000000       0.003
  -0.08024003  0.08024003  0.00000000       0.003
  -0.04012002  0.08024003  0.00000000       0.003
   0.00000000  0.12036005  0.00000000       0.003
   0.04012002  0.12036005  0.00000000       0.003
   0.08024003  0.12036005  0.00000000       0.003
   0.12036005  0.12036005  0.00000000       0.003
  -0.12036005  0.12036005  0.00000000       0.003
  -0.08024003  0.12036005  0.00000000       0.003
  -0.04012002  0.12036005  0.00000000       0.003
   0.00000000 -0.12036005  0.00000000       0.003
   0.04012002 -0.12036005  0.00000000       0.003
   0.08024003 -0.12036005  0.00000000       0.003
   0.12036005 -0.12036005  0.00000000       0.003
  -0.12036005 -0.12036005  0.00000000       0.003
  -0.08024003 -0.12036005  0.00000000       0.003
  -0.04012002 -0.12036005  0.00000000       0.003
   0.00000000 -0.08024003  0.00000000       0.003
   0.04012002 -0.08024003  0.00000000       0.003
   0.08024003 -0.08024003  0.00000000       0.003
   0.12036005 -0.08024003  0.00000000       0.003
  -0.12036005 -0.08024003  0.00000000       0.003
  -0.08024003 -0.08024003  0.00000000       0.003
  -0.04012002 -0.08024003  0.00000000       0.003
   0.00000000 -0.04012002  0.00000000       0.003
   0.04012002 -0.04012002  0.00000000       0.003
   0.08024003 -0.04012002  0.00000000       0.003
   0.12036005 -0.04012002  0.00000000       0.003
  -0.12036005 -0.04012002  0.00000000       0.003
  -0.08024003 -0.04012002  0.00000000       0.003
  -0.04012002 -0.04012002  0.00000000       0.003
   0.00000000  0.00000000  0.04012002       0.003
   0.04012002  0.00000000  0.04012002       0.003
   0.08024003  0.00000000  0.04012002       0.003
   0.12036005  0.00000000  0.04012002       0.003
  -0.12036005  0.00000000  0.04012002       0.003
  -0.08024003  0.00000000  0.04012002       0.003
  -0.04012002  0.00000000  0.04012002       0.003
   0.00000000  0.04012002  0.04012002       0.003
   0.04012002  0.04012002  0.04012002       0.003
   0.08024003  0.04012002  0.04012002       0.003
   0.12036005  0.04012002  0.04012002       0.003
  -0.12036005  0.04012002  0.04012002       0.003
  -0.08024003  0.04012002  0.04012002       0.003
  -0.04012002  0.04012002  0.04012002       0.003
   0.00000000  0.08024003  0.04012002       0.003
   0.04012002  0.08024003  0.04012002       0.003
   0.08024003  0.08024003  0.04012002       0.003
   0.12036005  0.08024003  0.04012002       0.003
  -0.12036005  0.08024003  0.04012002       0.003
  -0.08024003  0.08024003  0.04012002       0.003
  -0.04012002  0.08024003  0.04012002       0.003
   0.00000000  0.12036005  0.04012002       0.003
   0.04012002  0.12036005  0.04012002       0.003
   0.08024003  0.12036005  0.04012002       0.003
   0.12036005  0.12036005  0.04012002       0.003
  -0.12036005  0.12036005  0.04012002       0.003
  -0.08024003  0.12036005  0.04012002       0.003
  -0.04012002  0.12036005  0.04012002       0.003
   0.00000000 -0.12036005  0.04012002       0.003
   0.04012002 -0.12036005  0.04012002       0.003
   0.08024003 -0.12036005  0.04012002       0.003
   0.12036005 -0.12036005  0.04012002       0.003
  -0.12036005 -0.12036005  0.04012002       0.003
  -0.08024003 -0.12036005  0.04012002       0.003
  -0.04012002 -0.12036005  0.04012002       0.003
   0.00000000 -0.08024003  0.04012002       0.003
   0.04012002 -0.08024003  0.04012002       0.003
   0.08024003 -0.08024003  0.04012002       0.003
   0.12036005 -0.08024003  0.04012002       0.003
  -0.12036005 -0.08024003  0.04012002       0.003
  -0.08024003 -0.08024003  0.04012002       0.003
  -0.04012002 -0.08024003  0.04012002       0.003
   0.00000000 -0.04012002  0.04012002       0.003
   0.04012002 -0.04012002  0.04012002       0.003
   0.08024003 -0.04012002  0.04012002       0.003
   0.12036005 -0.04012002  0.04012002       0.003
  -0.12036005 -0.04012002  0.04012002       0.003
  -0.08024003 -0.04012002  0.04012002       0.003
  -0.04012002 -0.04012002  0.04012002       0.003
   0.00000000  0.00000000  0.08024003       0.003
   0.04012002  0.00000000  0.08024003       0.003
   0.08024003  0.00000000  0.08024003       0.003
   0.12036005  0.00000000  0.08024003       0.003
  -0.12036005  0.00000000  0.08024003       0.003
  -0.08024003  0.00000000  0.08024003       0.003
  -0.04012002  0.00000000  0.08024003       0.003
   0.00000000  0.04012002  0.08024003       0.003
   0.04012002  0.04012002  0.08024003       0.003
   0.08024003  0.04012002  0.08024003       0.003
   0.12036005  0.04012002  0.08024003       0.003
  -0.12036005  0.04012002  0.08024003       0.003
  -0.08024003  0.04012002  0.08024003       0.003
  -0.04012002  0.04012002  0.08024003       0.003
   0.00000000  0.08024003  0.08024003       0.003
   0.04012002  0.08024003  0.08024003       0.003
   0.08024003  0.08024003  0.08024003       0.003
   0.12036005  0.08024003  0.08024003       0.003
  -0.12036005  0.08024003  0.08024003       0.003
  -0.08024003  0.08024003  0.08024003       0.003
  -0.04012002  0.08024003  0.08024003       0.003
   0.00000000  0.12036005  0.08024003       0.003
   0.04012002  0.12036005  0.08024003       0.003
   0.08024003  0.12036005  0.08024003       0.003
   0.12036005  0.12036005  0.08024003       0.003
  -0.12036005  0.12036005  0.08024003       0.003
  -0.08024003  0.12036005  0.08024003       0.003
  -0.04012002  0.12036005  0.08024003       0.003
   0.00000000 -0.12036005  0.08024003       0.003
   0.04012002 -0.12036005  0.08024003       0.003
   0.08024003 -0.12036005  0.08024003       0.003
[...]
     17      12.9666      0.00000
     18      14.2253      0.00000
     19      14.6074      0.00000
     20      15.5988      0.00000

 k-point   337 :       0.0000   -0.1429   -0.1429
  band No.  band energies     occupation
      1     -13.1693      1.00000
      2      -7.4081      1.00000
      3      -6.5243      1.00000
      4      -4.7693      1.00000
      5      -3.4424      1.00000
      6      -1.9966      1.00000
      7       0.2293      1.00000
      8       1.0467      1.00000
      9       1.7540      1.00000
     10       2.4783      1.00000
     11       3.3025      1.00000
     12       3.5636      1.00000
     13       4.0348      1.00000
     14       8.8509      0.00000
     15      10.5707      0.00000
     16      11.4494      0.00000
     17      11.8531      0.00000
     18      13.7202      0.00000
     19      13.7232      0.00000
     20      14.3112      0.00000

 k-point   338 :       0.1429   -0.1429   -0.1429
  band No.  band energies     occupation
      1     -13.0020      1.00000
      2      -7.9427      1.00000
      3      -6.4067      1.00000
      4      -4.6930      1.00000
      5      -3.0630      1.00000
      6      -1.9659      1.00000
      7      -0.0345      1.00000
      8       0.6002      1.00000
      9       1.6725      1.00000
     10       1.9340      1.00000
     11       3.4300      1.00000
     12       4.1878      1.00000
     13       4.3499      1.00000
     14       8.7581      0.93873
     15       9.9691      0.00000
     16      11.1782      0.00000
     17      12.0287      0.00000
     18      13.8109      0.00000
     19      14.2935      0.00000
     20      15.0128      0.00000

 k-point   339 :       0.2857   -0.1429   -0.1429
  band No.  band energies     occupation
      1     -12.5543      1.00000
      2      -8.8183      1.00000
      3      -6.0867      1.00000
      4      -5.3106      1.00000
      5      -2.1484      1.00000
      6      -1.8310      1.00000
      7      -0.2991      1.00000
      8      -0.0467      1.00000
      9       1.7152      1.00000
     10       1.8095      1.00000
     11       3.5089      1.00000
     12       3.9846      1.00000
     13       4.9173      1.00000
     14       7.9109      1.00000
     15       9.4322      0.00000
     16      10.5463      0.00000
     17      12.6358      0.00000
     18      14.8557      0.00000
     19      15.1947      0.00000
     20      15.6638      0.00000

 k-point   340 :       0.4286   -0.1429   -0.1429
  band No.  band energies     occupation
      1     -12.0213      1.00000
      2      -9.6482      1.00000
      3      -5.7445      1.00000
      4      -5.5672      1.00000
      5      -2.5977      1.00000
      6      -1.6408      1.00000
      7      -0.1354      1.00000
      8       0.2095      1.00000
      9       1.8791      1.00000
     10       1.9602      1.00000
     11       3.0098      1.00000
     12       3.6500      1.00000
     13       5.3133      1.00000
     14       7.2775      1.00000
     15       8.9825      0.00000
     16      10.0816      0.00000
     17      13.3206      0.00000
     18      15.2550      0.00000
     19      16.8219      0.00000
     20      17.0651      0.00000

 k-point   341 :      -0.4286   -0.1429   -0.1429
  band No.  band energies     occupation
      1     -12.0622      1.00000
      2      -9.4797      1.00000
      3      -5.9215      1.00000
      4      -5.7325      1.00000
      5      -2.6614      1.00000
      6      -1.4893      1.00000
      7      -0.1093      1.00000
      8       0.6665      1.00000
      9       2.1022      1.00000
     10       2.1934      1.00000
     11       2.5804      1.00000
     12       3.4313      1.00000
     13       5.7035      1.00000
     14       5.9503      1.00000
     15       9.7984      0.00000
     16      10.0892      0.00000
     17      13.5813      0.00000
     18      14.9780      0.00000
     19      15.9931      0.00000
     20      16.4429      0.00000

 k-point   342 :      -0.2857   -0.1429   -0.1429
  band No.  band energies     occupation
      1     -12.6000      1.00000
      2      -8.2936      1.00000
      3      -6.3944      1.00000
      4      -6.0684      1.00000
      5      -2.2914      1.00000
      6      -1.3244      1.00000
      7      -0.0029      1.00000
      8       0.7414      1.00000
      9       1.5974      1.00000
     10       2.3594      1.00000
     11       3.3128      1.00000
     12       3.4632      1.00000
     13       4.3373      1.00000
     14       6.6696      1.00000
     15      10.5446      0.00000
     16      10.7917      0.00000
     17      12.9666      0.00000
     18      14.2253      0.00000
     19      14.6074      0.00000
     20      15.5988      0.00000

 k-point   343 :      -0.1429   -0.1429   -0.1429
  band No.  band energies     occupation
      1     -13.0249      1.00000
      2      -7.1389      1.00000
      3      -6.3961      1.00000
      4      -6.3961      1.00000
      5      -2.0595      1.00000
      6      -2.0595      1.00000
      7       0.5076      1.00000
      8       0.5076      1.00000
      9       2.1222      1.00000
     10       2.2312      1.00000
     11       3.1363      1.00000
     12       3.7558      1.00000
     13       3.7558      1.00000
     14       7.8429      1.00000
     15      11.1191      0.00000
     16      11.1191      0.00000
     17      12.1272      0.00000
     18      13.6911      0.00000
     19      13.6911      0.00000
     20      15.5078      0.00000


--------------------------------------------------------------------------------------------------------


 soft charge-density along one line, spin component           1
         0         1         2         3         4         5         6         7         8         9
 total charge-density along one line

 soft charge-density along one line, spin component           2
         0         1         2         3         4         5         6         7         8         9
 total charge-density along one line

 pseudopotential strength for first ion, spin component:           1
  9.594  12.745   0.002  -0.002  -0.002  -0.005   0.007   0.007
 12.745  16.930   0.002  -0.003  -0.003  -0.007   0.009   0.009
  0.002   0.002  -3.851   0.003   0.003   7.529  -0.006  -0.006
 -0.002  -0.003   0.003  -3.852  -0.003  -0.006   7.531   0.005
 -0.002  -0.003   0.003  -0.003  -3.852  -0.006   0.005   7.531
 -0.005  -0.007   7.529  -0.006  -0.006 -16.819   0.013   0.013
  0.007   0.009  -0.006   7.531   0.005   0.013 -16.824  -0.011
  0.007   0.009  -0.006   0.005   7.531   0.013  -0.011 -16.824
 pseudopotential strength for first ion, spin component:           2
  9.596  12.747   0.002  -0.002  -0.002  -0.005   0.007   0.007
 12.747  16.933   0.002  -0.003  -0.003  -0.006   0.010   0.010
  0.002   0.002  -3.852   0.003   0.003   7.530  -0.006  -0.006
 -0.002  -0.003   0.003  -3.853  -0.003  -0.006   7.532   0.006
 -0.002  -0.003   0.003  -0.003  -3.853  -0.006   0.006   7.532
 -0.005  -0.006   7.530  -0.006  -0.006 -16.821   0.013   0.013
  0.007   0.010  -0.006   7.532   0.006   0.013 -16.825  -0.012
  0.007   0.010  -0.006   0.006   7.532   0.013  -0.012 -16.825
 total augmentation occupancy for first ion, spin component:           1
  7.101  -3.109  -0.032   0.030   0.030   0.001  -0.001  -0.001
 -3.109   1.467  -0.010   0.013   0.013  -0.003   0.003   0.003
 -0.032  -0.010   1.541   0.074   0.074   0.123   0.000   0.000
  0.030   0.013   0.074   1.501  -0.067   0.000   0.121  -0.001
  0.030   0.013   0.074  -0.067   1.501   0.000  -0.001   0.121
  0.001  -0.003   0.123   0.000   0.000   0.012  -0.000  -0.000
 -0.001   0.003   0.000   0.121  -0.001  -0.000   0.011   0.000
 -0.001   0.003   0.000  -0.001   0.121  -0.000   0.000   0.011
 total augmentation occupancy for first ion, spin component:           2
  0.034  -0.033  -0.002   0.000   0.000  -0.001   0.000   0.000
 -0.033   0.028   0.002   0.001   0.001   0.000  -0.000  -0.000
 -0.002   0.002  -0.008  -0.001  -0.001   0.001   0.000   0.000
  0.000   0.001  -0.001  -0.000  -0.003   0.000  -0.000   0.000
  0.000   0.001  -0.001  -0.003  -0.000   0.000   0.000  -0.000
 -0.001   0.000   0.001   0.000   0.000   0.000   0.000   0.000
  0.000  -0.000   0.000  -0.000   0.000   0.000   0.000  -0.000
  0.000  -0.000   0.000   0.000  -0.000   0.000  -0.000   0.000


------------------------ aborting loop because EDIFF is reached ----------------------------------------





 total charge

# of ion       s       p       d       tot
------------------------------------------
    1        0.828   1.700   0.000   2.527
    2        0.828   1.700   0.000   2.527
    3        0.828   1.700   0.000   2.527
    4        0.851   1.684   0.000   2.535
    5        0.851   1.684   0.000   2.535
    6        0.851   1.684   0.000   2.535
    7        1.246   2.565   0.000   3.810
--------------------------------------------------
tot          6.282  12.714   0.000  18.996



 magnetization (x)

# of ion       s       p       d       tot
------------------------------------------
    1       -0.003  -0.004   0.000  -0.007
    2       -0.003  -0.004   0.000  -0.007
    3       -0.003  -0.004   0.000  -0.007
    4        0.045   0.329   0.000   0.374
    5        0.045   0.329   0.000   0.374
    6        0.045   0.329   0.000   0.374
    7        0.008   0.186   0.000   0.194
--------------------------------------------------
tot          0.135   1.161   0.000   1.296

    CHARGE:  cpu time      0.0627: real time      0.0627
    FORLOC:  cpu time      0.0001: real time      0.0001
    FORHF :  cpu time      0.0001: real time      0.0001
    FORNL :  cpu time      0.0974: real time      0.0974
    STRESS:  cpu time      0.3451: real time      0.3452
    FORCOR:  cpu time      0.0031: real time      0.0031
    FORHAR:  cpu time      0.0004: real time      0.0004
    MIXING:  cpu time      0.0002: real time      0.0002
    OFIELD:  cpu time      0.0000: real time      0.0000

  FORCE on cell =-STRESS in cart. coord.  units (eV):
  Direction    XX          YY          ZZ          XY          YZ          ZX
  --------------------------------------------------------------------------------------
  Alpha Z    92.99332    92.99332    92.99332
  Ewald    -409.02621  -409.02621  -409.02621    -7.78969    -7.78969    -7.78969
  Hartree    48.86164    48.86164    48.86164    -2.75892    -2.75892    -2.75892
  E(xc)    -113.92552  -113.92552  -113.92552    -0.02462    -0.02462    -0.02462
  Local     -64.50323   -64.50323   -64.50323     7.75713     7.75713     7.75713
  n-local   -32.20597   -32.20597   -32.20597    -0.93099    -0.93099    -0.93099
  augment    -0.98313    -0.98313    -0.98313     0.18846     0.18846     0.18846
  Kinetic   488.03910   488.03910   488.03910     5.35021     5.35021     5.35021
  Fock        0.00000     0.00000     0.00000     0.00000     0.00000     0.00000
  -------------------------------------------------------------------------------------
  Total       9.25000     9.25000     9.25000     1.79158     1.79158     1.79158
  in kB     328.26894   328.26894   328.26895    63.58071    63.58071    63.58070
  external pressure =      328.27 kB  Pullay stress =        0.00 kB


 VOLUME and BASIS-vectors are now :
 -----------------------------------------------------------------------------
  energy-cutoff  :      520.00
  volume of cell :       45.15
      direct lattice vectors                 reciprocal lattice vectors
     3.560745001  0.000000000  0.000000000     0.280840105  0.000000000  0.000000000
     0.000000000  3.560745001  0.000000000     0.000000000  0.280840105  0.000000000
     0.000000000  0.000000000  3.560745001     0.000000000  0.000000000  0.280840105

  length of vectors
     3.560745001  3.560745001  3.560745001     0.280840105  0.280840105  0.280840105


 FORCES acting on ions
    electron-ion (+dipol)            ewald-force                    non-local-force                 convergence-correction
 -----------------------------------------------------------------------------------------------
   -.831E+01 0.921E+01 -.831E+01   0.107E+02 -.107E+02 0.107E+02   -.193E+01 0.197E+01 -.193E+01   -.315E-03 0.470E-03 -.315E-03
   -.831E+01 -.831E+01 0.921E+01   0.107E+02 0.107E+02 -.107E+02   -.193E+01 -.193E+01 0.197E+01   -.315E-03 -.315E-03 0.470E-03
   0.921E+01 -.831E+01 -.831E+01   -.107E+02 0.107E+02 0.107E+02   0.197E+01 -.193E+01 -.193E+01   0.470E-03 -.315E-03 -.315E-03
   -.383E+02 0.373E+02 -.383E+02   0.429E+02 -.429E+02 0.429E+02   -.602E+01 0.609E+01 -.602E+01   0.207E-03 -.331E-03 0.207E-03
   -.383E+02 -.383E+02 0.373E+02   0.429E+02 0.429E+02 -.429E+02   -.602E+01 -.602E+01 0.609E+01   0.207E-03 0.207E-03 -.331E-03
   0.373E+02 -.383E+02 -.383E+02   -.429E+02 0.429E+02 0.429E+02   0.609E+01 -.602E+01 -.602E+01   -.331E-03 0.207E-03 0.207E-03
   0.406E+02 0.406E+02 0.406E+02   -.536E+02 -.536E+02 -.536E+02   0.141E+02 0.141E+02 0.141E+02   0.625E-04 0.629E-04 0.626E-04
 -----------------------------------------------------------------------------------------------
   -.623E+01 -.623E+01 -.623E+01   -.142E-13 0.000E+00 0.000E+00   0.623E+01 0.623E+01 0.623E+01   -.132E-04 -.133E-04 -.137E-04


 POSITION                                       TOTAL-FORCE (eV/Angst)
 -----------------------------------------------------------------------------------
      1.78037      0.00000      1.78037         0.471231      0.465883      0.471232
      1.78037      1.78037      0.00000         0.471231      0.471232      0.465883
      0.00000      1.78037      1.78037         0.465883      0.471232      0.471232
      2.67056      0.89019      2.67056        -1.478979      0.492722     -1.478979
      2.67056      2.67056      0.89019        -1.478979     -1.478979      0.492722
      0.89019      2.67056      2.67056         0.492722     -1.478979     -1.478979
      0.89019      0.89019      0.89019         1.056889      1.056889      1.056889
 -----------------------------------------------------------------------------------
    total drift:                                0.000095      0.000095      0.000095


--------------------------------------------------------------------------------------------------------



  FREE ENERGIE OF THE ION-ELECTRON SYSTEM (eV)
  ---------------------------------------------------
  free  energy   TOTEN  =       -51.06814046 eV

  energy  without entropy=      -51.06802413  energy(sigma->0) =      -51.06808230



--------------------------------------------------------------------------------------------------------


    POTLOK:  cpu time      0.3028: real time      0.3028

 Total magnetic moment S=     1.9999995

 Fermi contact (isotropic) hyperfine coupling parameter (MHz)
 -------------------------------------------------------------
  ion      A_pw      A_1PS     A_1AE     A_1c      A_tot
 -------------------------------------------------------------
   1      -0.302    -0.310    -9.042     0.120    -9.034
   2      -0.302    -0.310    -9.042     0.120    -9.034
   3      -0.302    -0.310    -9.042     0.120    -9.034
   4      21.232    21.364   165.189   -34.766   165.057
   5      21.232    21.364   165.189   -34.766   165.057
   6      21.232    21.364   165.189   -34.766   165.057
   7       5.690     5.691    13.576    -7.416    13.574
 -------------------------------------------------------------


 Dipolar hyperfine coupling parameters (MHz)
 ---------------------------------------------------------------------
  ion      A_xx      A_yy      A_zz      A_xy      A_xz      A_yz
 ---------------------------------------------------------------------
   1       0.455    -0.910     0.455     0.217    -1.001     0.217
   2       0.455     0.455    -0.910    -1.001     0.217     0.217
   3      -0.910     0.455     0.455     0.217     0.217    -1.001
   4      -0.453     0.907    -0.454   -24.135    23.460   -24.135
   5      -0.453    -0.453     0.907    23.460   -24.135   -24.135
   6       0.907    -0.453    -0.454   -24.135   -24.135    23.460
   7       0.000     0.000    -0.000     3.359     3.359     3.359
 ---------------------------------------------------------------------


 Total hyperfine coupling parameters after diagonalization (MHz)
 (convention: |A_zz| > |A_xx| > |A_yy|)
 ----------------------------------------------------------------------
  ion      A_xx      A_yy      A_zz     asymmetry (A_yy - A_xx)/ A_zz
 ----------------------------------------------------------------------
   1      -9.405    -7.578   -10.118      -0.181
   2      -9.405    -7.578   -10.118      -0.181
   3      -9.405    -7.578   -10.118      -0.181
   4     141.144   141.138   212.890      -0.000
   5     141.144   141.137   212.890      -0.000
   6     141.144   141.138   212.890      -0.000
   7      10.215    10.215    20.293      -0.000
 ---------------------------------------------------------------------


 Spin-spin contribution to zero-field splitting tensor (MHz)
 ---------------------------------------------------------------
      D_xx      D_yy      D_zz      D_xy      D_xz      D_yz
 ---------------------------------------------------------------
     -0.000     0.000     0.000   720.811   720.811   720.811
 ---------------------------------------------------------------

 after diagonalization
 ---------------------------------------------
     D_diag          eigenvector (x,y,z)
 ---------------------------------------------
   -720.811      -0.046     0.729    -0.683
   -720.811      -0.815     0.368     0.447
   1441.622       0.577     0.577     0.577
---------------------------------------------



--------------------------------------------------------------------------------------------------------


 writing wavefunctions
     LOOP+:  cpu time   1148.8814: real time   1149.1718
    4ORBIT:  cpu time      0.0000: real time      0.0000



 total charge

# of ion       s       p       d       tot
------------------------------------------
    1        0.828   1.700   0.000   2.527
    2        0.828   1.700   0.000   2.527
    3        0.828   1.700   0.000   2.527
    4        0.851   1.684   0.000   2.535
    5        0.851   1.684   0.000   2.535
    6        0.851   1.684   0.000   2.535
    7        1.246   2.565   0.000   3.810
--------------------------------------------------
tot          6.282  12.714   0.000  18.996



 magnetization (x)

# of ion       s       p       d       tot
------------------------------------------
    1       -0.003  -0.004   0.000  -0.007
    2       -0.003  -0.004   0.000  -0.007
    3       -0.003  -0.004   0.000  -0.007
    4        0.045   0.329   0.000   0.374
    5        0.045   0.329   0.000   0.374
    6        0.045   0.329   0.000   0.374
    7        0.008   0.186   0.000   0.194
--------------------------------------------------
tot          0.135   1.161   0.000   1.296


 total amount of memory used by VASP MPI-rank0    39939. kBytes
=======================================================================

   base      :      30000. kBytes
   nonl-proj :       4049. kBytes
   fftplans  :        115. kBytes
   grid      :        198. kBytes
   one-center:          6. kBytes
   HF        :          4. kBytes
   nonlr-proj:         79. kBytes
   wavefun   :       5488. kBytes



 General timing and accounting information for this job:
 ========================================================

                  Total CPU time used (sec):     1151.941
                            User time (sec):     1150.733
                          System time (sec):        1.208
                         Elapsed time (sec):     1153.039

                   Maximum memory used (kb):      111544.
                   Average memory used (kb):          N/A

                          Minor page faults:        51873
                          Major page faults:         1821
                 Voluntary context switches:         7058
